 Entering Gaussian System, Link 0=g09
 Input=HC064_BAPOCM10_OPT_20.com
 Output=HC064_BAPOCM10_OPT_20.log
 Initial command:
 /cm/shared/apps/Gaussian09/g09/l1.exe "/local/Gau-59167.inp" -scrdir="/local/"
 Entering Link 1 = /cm/shared/apps/Gaussian09/g09/l1.exe PID=     59168.
  
 Copyright (c) 1988,1990,1992,1993,1995,1998,2003,2009,2013,
            Gaussian, Inc.  All Rights Reserved.
  
 This is part of the Gaussian(R) 09 program.  It is based on
 the Gaussian(R) 03 system (copyright 2003, Gaussian, Inc.),
 the Gaussian(R) 98 system (copyright 1998, Gaussian, Inc.),
 the Gaussian(R) 94 system (copyright 1995, Gaussian, Inc.),
 the Gaussian 92(TM) system (copyright 1992, Gaussian, Inc.),
 the Gaussian 90(TM) system (copyright 1990, Gaussian, Inc.),
 the Gaussian 88(TM) system (copyright 1988, Gaussian, Inc.),
 the Gaussian 86(TM) system (copyright 1986, Carnegie Mellon
 University), and the Gaussian 82(TM) system (copyright 1983,
 Carnegie Mellon University). Gaussian is a federally registered
 trademark of Gaussian, Inc.
  
 This software contains proprietary and confidential information,
 including trade secrets, belonging to Gaussian, Inc.
  
 This software is provided under written license and may be
 used, copied, transmitted, or stored only in accord with that
 written license.
  
 The following legend is applicable only to US Government
 contracts under FAR:
  
                    RESTRICTED RIGHTS LEGEND
  
 Use, reproduction and disclosure by the US Government is
 subject to restrictions as set forth in subparagraphs (a)
 and (c) of the Commercial Computer Software - Restricted
 Rights clause in FAR 52.227-19.
  
 Gaussian, Inc.
 340 Quinnipiac St., Bldg. 40, Wallingford CT 06492
  
  
 ---------------------------------------------------------------
 Warning -- This program may not be used in any manner that
 competes with the business of Gaussian, Inc. or will provide
 assistance to any competitor of Gaussian, Inc.  The licensee
 of this program is prohibited from giving any competitor of
 Gaussian, Inc. access to this program.  By using this program,
 the user acknowledges that Gaussian, Inc. is engaged in the
 business of creating and licensing software in the field of
 computational chemistry and represents and warrants to the
 licensee that it is not a competitor of Gaussian, Inc. and that
 it will not use this program in any manner prohibited above.
 ---------------------------------------------------------------
  

 Cite this work as:
 Gaussian 09, Revision D.01,
 M. J. Frisch, G. W. Trucks, H. B. Schlegel, G. E. Scuseria, 
 M. A. Robb, J. R. Cheeseman, G. Scalmani, V. Barone, B. Mennucci, 
 G. A. Petersson, H. Nakatsuji, M. Caricato, X. Li, H. P. Hratchian, 
 A. F. Izmaylov, J. Bloino, G. Zheng, J. L. Sonnenberg, M. Hada, 
 M. Ehara, K. Toyota, R. Fukuda, J. Hasegawa, M. Ishida, T. Nakajima, 
 Y. Honda, O. Kitao, H. Nakai, T. Vreven, J. A. Montgomery, Jr., 
 J. E. Peralta, F. Ogliaro, M. Bearpark, J. J. Heyd, E. Brothers, 
 K. N. Kudin, V. N. Staroverov, T. Keith, R. Kobayashi, J. Normand, 
 K. Raghavachari, A. Rendell, J. C. Burant, S. S. Iyengar, J. Tomasi, 
 M. Cossi, N. Rega, J. M. Millam, M. Klene, J. E. Knox, J. B. Cross, 
 V. Bakken, C. Adamo, J. Jaramillo, R. Gomperts, R. E. Stratmann, 
 O. Yazyev, A. J. Austin, R. Cammi, C. Pomelli, J. W. Ochterski, 
 R. L. Martin, K. Morokuma, V. G. Zakrzewski, G. A. Voth, 
 P. Salvador, J. J. Dannenberg, S. Dapprich, A. D. Daniels, 
 O. Farkas, J. B. Foresman, J. V. Ortiz, J. Cioslowski, 
 and D. J. Fox, Gaussian, Inc., Wallingford CT, 2013.
 
 ******************************************
 Gaussian 09:  ES64L-G09RevD.01 24-Apr-2013
                 1-Apr-2017 
 ******************************************
 %chk=HC064_BAPOCM10_OPT_20.chk
 %mem=11800MB
 %NProcShared=4
 Will use up to    4 processors via shared memory.
 -------------------------------------
 #T opt b3lyp/6-311g(d,p) MaxDisk=50GB
 -------------------------------------
 ---------------------
 HC064 OPT BAPOCM10 20
 ---------------------
 Symbolic Z-matrix:
 Charge =  0 Multiplicity = 1
 C1                    2.9833    2.9458    2.7107 
 C2                    2.3324    2.1895    3.9083 
 C3                    2.2847    0.7093    3.4598 
 C4                    2.8765    0.7598    2.0526 
 C5                    1.8489    1.4252    1.1417 
 C6                    1.8934    2.9037    1.6024 
 C7                    3.9812    1.8362    2.177 
 C8                    5.0849    1.388     3.1448 
 C9                    4.6494    2.1119    0.8239 
 H1                    2.1094    3.5134    0.8406 
 H2                    4.7924    1.3102    4.0707 
 H3                    5.8538    2.0391    3.1552 
 H4                    5.4375    2.7338    0.9212 
 H5                    4.0517    2.526     0.1612 
 H6                    4.9834    1.2803    0.4491 
 H7                    3.2028   -0.1173    1.71 
 H8                    1.0119    3.1986    1.9691 
 H9                    1.3946    2.5452    4.0937 
 H10                   2.8588    2.3106    4.7673 
 H11                   2.1116    1.3365    0.167 
 H12                   0.9137    1.0117    1.2379 
 H13                   1.3315    0.353     3.4719 
 H14                   2.8308    0.1186    4.0534 
 H15                   5.4465    0.5116    2.8731 
 C1A                   3.5186    4.3547    3.0469 
 C2A                   4.1695    5.111     1.8494 
 C6A                   4.6086    4.3969    4.1553 
 C7A                   2.5207    5.4643    3.5807 
 C3A                   4.2172    6.5912    2.2979 
 H9A                   5.1073    4.7553    1.664 
 H10A                  3.6431    4.99      0.9903 
 C5A                   4.653     5.8753    4.6159 
 H1A                   4.3925    3.7871    4.917 
 H8A                   5.4901    4.1019    3.7885 
 C4A                   3.6254    6.5407    3.705 
 C8A                   1.417     5.9126    2.6128 
 C9A                   1.8525    5.1886    4.9337 
 H13A                  5.1704    6.9475    2.2858 
 H14A                  3.6712    7.182     1.7043 
 H11A                  4.3903    5.964     5.5907 
 H12A                  5.5882    6.2888    4.5198 
 H7A                   3.2991    7.4178    4.0476 
 H2A                   1.7096    5.9903    1.687 
 H3A                   0.6481    5.2614    2.6025 
 H15A                  1.0554    6.7889    2.8846 
 H4A                   1.0644    4.5668    4.8364 
 H5A                   2.4502    4.7746    5.5964 
 H6A                   1.5185    6.0202    5.3085 
 

 GradGradGradGradGradGradGradGradGradGradGradGradGradGradGradGradGradGrad
 Initialization pass.
                           ----------------------------
                           !    Initial Parameters    !
                           ! (Angstroms and Degrees)  !
 --------------------------                            --------------------------
 ! Name  Definition              Value          Derivative Info.                !
 --------------------------------------------------------------------------------
 ! R1    R(1,2)                  1.5588         estimate D2E/DX2                !
 ! R2    R(1,6)                  1.555          estimate D2E/DX2                !
 ! R3    R(1,7)                  1.5849         estimate D2E/DX2                !
 ! R4    R(1,25)                 1.5442         estimate D2E/DX2                !
 ! R5    R(2,3)                  1.5474         estimate D2E/DX2                !
 ! R6    R(2,18)                 1.02           estimate D2E/DX2                !
 ! R7    R(2,19)                 1.0147         estimate D2E/DX2                !
 ! R8    R(3,4)                  1.5274         estimate D2E/DX2                !
 ! R9    R(3,22)                 1.0177         estimate D2E/DX2                !
 ! R10   R(3,23)                 0.9998         estimate D2E/DX2                !
 ! R11   R(4,5)                  1.5259         estimate D2E/DX2                !
 ! R12   R(4,7)                  1.5474         estimate D2E/DX2                !
 ! R13   R(4,16)                 0.9966         estimate D2E/DX2                !
 ! R14   R(5,6)                  1.5493         estimate D2E/DX2                !
 ! R15   R(5,20)                 1.0134         estimate D2E/DX2                !
 ! R16   R(5,21)                 1.0271         estimate D2E/DX2                !
 ! R17   R(6,10)                 0.9994         estimate D2E/DX2                !
 ! R18   R(6,17)                 0.9992         estimate D2E/DX2                !
 ! R19   R(7,8)                  1.5348         estimate D2E/DX2                !
 ! R20   R(7,9)                  1.5341         estimate D2E/DX2                !
 ! R21   R(8,11)                 0.9741         estimate D2E/DX2                !
 ! R22   R(8,12)                 1.0076         estimate D2E/DX2                !
 ! R23   R(8,24)                 0.9862         estimate D2E/DX2                !
 ! R24   R(9,13)                 1.0086         estimate D2E/DX2                !
 ! R25   R(9,14)                 0.9838         estimate D2E/DX2                !
 ! R26   R(9,15)                 0.9714         estimate D2E/DX2                !
 ! R27   R(25,26)                1.5587         estimate D2E/DX2                !
 ! R28   R(25,27)                1.5551         estimate D2E/DX2                !
 ! R29   R(25,28)                1.5849         estimate D2E/DX2                !
 ! R30   R(26,29)                1.5474         estimate D2E/DX2                !
 ! R31   R(26,30)                1.02           estimate D2E/DX2                !
 ! R32   R(26,31)                1.0148         estimate D2E/DX2                !
 ! R33   R(27,32)                1.5491         estimate D2E/DX2                !
 ! R34   R(27,33)                0.9994         estimate D2E/DX2                !
 ! R35   R(27,34)                0.9993         estimate D2E/DX2                !
 ! R36   R(28,35)                1.5474         estimate D2E/DX2                !
 ! R37   R(28,36)                1.5349         estimate D2E/DX2                !
 ! R38   R(28,37)                1.534          estimate D2E/DX2                !
 ! R39   R(29,35)                1.5273         estimate D2E/DX2                !
 ! R40   R(29,38)                1.0177         estimate D2E/DX2                !
 ! R41   R(29,39)                0.9998         estimate D2E/DX2                !
 ! R42   R(32,35)                1.5259         estimate D2E/DX2                !
 ! R43   R(32,40)                1.0135         estimate D2E/DX2                !
 ! R44   R(32,41)                1.027          estimate D2E/DX2                !
 ! R45   R(35,42)                0.9966         estimate D2E/DX2                !
 ! R46   R(36,43)                0.974          estimate D2E/DX2                !
 ! R47   R(36,44)                1.0077         estimate D2E/DX2                !
 ! R48   R(36,45)                0.9862         estimate D2E/DX2                !
 ! R49   R(37,46)                1.0086         estimate D2E/DX2                !
 ! R50   R(37,47)                0.9838         estimate D2E/DX2                !
 ! R51   R(37,48)                0.9714         estimate D2E/DX2                !
 ! A1    A(2,1,6)              103.9912         estimate D2E/DX2                !
 ! A2    A(2,1,7)              100.4831         estimate D2E/DX2                !
 ! A3    A(2,1,25)             114.8437         estimate D2E/DX2                !
 ! A4    A(6,1,7)              100.5067         estimate D2E/DX2                !
 ! A5    A(6,1,25)             115.0144         estimate D2E/DX2                !
 ! A6    A(7,1,25)             119.592          estimate D2E/DX2                !
 ! A7    A(1,2,3)              104.7322         estimate D2E/DX2                !
 ! A8    A(1,2,18)             110.7547         estimate D2E/DX2                !
 ! A9    A(1,2,19)             112.0775         estimate D2E/DX2                !
 ! A10   A(3,2,18)             110.9732         estimate D2E/DX2                !
 ! A11   A(3,2,19)             112.0563         estimate D2E/DX2                !
 ! A12   A(18,2,19)            106.3483         estimate D2E/DX2                !
 ! A13   A(2,3,4)              102.9124         estimate D2E/DX2                !
 ! A14   A(2,3,22)             111.1206         estimate D2E/DX2                !
 ! A15   A(2,3,23)             112.1021         estimate D2E/DX2                !
 ! A16   A(4,3,22)             112.6705         estimate D2E/DX2                !
 ! A17   A(4,3,23)             110.7879         estimate D2E/DX2                !
 ! A18   A(22,3,23)            107.3196         estimate D2E/DX2                !
 ! A19   A(3,4,5)              107.6657         estimate D2E/DX2                !
 ! A20   A(3,4,7)              103.0345         estimate D2E/DX2                !
 ! A21   A(3,4,16)             114.4869         estimate D2E/DX2                !
 ! A22   A(5,4,7)              103.0276         estimate D2E/DX2                !
 ! A23   A(5,4,16)             113.5197         estimate D2E/DX2                !
 ! A24   A(7,4,16)             113.9609         estimate D2E/DX2                !
 ! A25   A(4,5,6)              102.6674         estimate D2E/DX2                !
 ! A26   A(4,5,20)             111.1877         estimate D2E/DX2                !
 ! A27   A(4,5,21)             112.4405         estimate D2E/DX2                !
 ! A28   A(6,5,20)             111.2297         estimate D2E/DX2                !
 ! A29   A(6,5,21)             112.49           estimate D2E/DX2                !
 ! A30   A(20,5,21)            106.9119         estimate D2E/DX2                !
 ! A31   A(1,6,5)              104.9465         estimate D2E/DX2                !
 ! A32   A(1,6,10)             112.0429         estimate D2E/DX2                !
 ! A33   A(1,6,17)             110.412          estimate D2E/DX2                !
 ! A34   A(5,6,10)             111.2079         estimate D2E/DX2                !
 ! A35   A(5,6,17)             111.4344         estimate D2E/DX2                !
 ! A36   A(10,6,17)            106.8796         estimate D2E/DX2                !
 ! A37   A(1,7,4)               93.7029         estimate D2E/DX2                !
 ! A38   A(1,7,8)              116.4161         estimate D2E/DX2                !
 ! A39   A(1,7,9)              116.452          estimate D2E/DX2                !
 ! A40   A(4,7,8)              111.1574         estimate D2E/DX2                !
 ! A41   A(4,7,9)              111.4114         estimate D2E/DX2                !
 ! A42   A(8,7,9)              107.1835         estimate D2E/DX2                !
 ! A43   A(7,8,11)             114.0006         estimate D2E/DX2                !
 ! A44   A(7,8,12)             111.5036         estimate D2E/DX2                !
 ! A45   A(7,8,24)             110.4533         estimate D2E/DX2                !
 ! A46   A(11,8,12)            105.7201         estimate D2E/DX2                !
 ! A47   A(11,8,24)            107.5164         estimate D2E/DX2                !
 ! A48   A(12,8,24)            107.2944         estimate D2E/DX2                !
 ! A49   A(7,9,13)             111.4729         estimate D2E/DX2                !
 ! A50   A(7,9,14)             113.901          estimate D2E/DX2                !
 ! A51   A(7,9,15)             109.6476         estimate D2E/DX2                !
 ! A52   A(13,9,14)            106.2695         estimate D2E/DX2                !
 ! A53   A(13,9,15)            107.2423         estimate D2E/DX2                !
 ! A54   A(14,9,15)            108.019          estimate D2E/DX2                !
 ! A55   A(1,25,26)            114.8459         estimate D2E/DX2                !
 ! A56   A(1,25,27)            115.018          estimate D2E/DX2                !
 ! A57   A(1,25,28)            119.5922         estimate D2E/DX2                !
 ! A58   A(26,25,27)           103.9874         estimate D2E/DX2                !
 ! A59   A(26,25,28)           100.4849         estimate D2E/DX2                !
 ! A60   A(27,25,28)           100.5013         estimate D2E/DX2                !
 ! A61   A(25,26,29)           104.734          estimate D2E/DX2                !
 ! A62   A(25,26,30)           110.7551         estimate D2E/DX2                !
 ! A63   A(25,26,31)           112.0812         estimate D2E/DX2                !
 ! A64   A(29,26,30)           110.9732         estimate D2E/DX2                !
 ! A65   A(29,26,31)           112.0506         estimate D2E/DX2                !
 ! A66   A(30,26,31)           106.348          estimate D2E/DX2                !
 ! A67   A(25,27,32)           104.9457         estimate D2E/DX2                !
 ! A68   A(25,27,33)           112.0314         estimate D2E/DX2                !
 ! A69   A(25,27,34)           110.405          estimate D2E/DX2                !
 ! A70   A(32,27,33)           111.2173         estimate D2E/DX2                !
 ! A71   A(32,27,34)           111.4434         estimate D2E/DX2                !
 ! A72   A(33,27,34)           106.8805         estimate D2E/DX2                !
 ! A73   A(25,28,35)            93.7019         estimate D2E/DX2                !
 ! A74   A(25,28,36)           116.4127         estimate D2E/DX2                !
 ! A75   A(25,28,37)           116.4552         estimate D2E/DX2                !
 ! A76   A(35,28,36)           111.1512         estimate D2E/DX2                !
 ! A77   A(35,28,37)           111.4166         estimate D2E/DX2                !
 ! A78   A(36,28,37)           107.1852         estimate D2E/DX2                !
 ! A79   A(26,29,35)           102.912          estimate D2E/DX2                !
 ! A80   A(26,29,38)           111.1206         estimate D2E/DX2                !
 ! A81   A(26,29,39)           112.1081         estimate D2E/DX2                !
 ! A82   A(35,29,38)           112.6719         estimate D2E/DX2                !
 ! A83   A(35,29,39)           110.7894         estimate D2E/DX2                !
 ! A84   A(38,29,39)           107.3118         estimate D2E/DX2                !
 ! A85   A(27,32,35)           102.6716         estimate D2E/DX2                !
 ! A86   A(27,32,40)           111.2281         estimate D2E/DX2                !
 ! A87   A(27,32,41)           112.4891         estimate D2E/DX2                !
 ! A88   A(35,32,40)           111.1893         estimate D2E/DX2                !
 ! A89   A(35,32,41)           112.4443         estimate D2E/DX2                !
 ! A90   A(40,32,41)           106.9054         estimate D2E/DX2                !
 ! A91   A(28,35,29)           103.0391         estimate D2E/DX2                !
 ! A92   A(28,35,32)           103.0254         estimate D2E/DX2                !
 ! A93   A(28,35,42)           113.9596         estimate D2E/DX2                !
 ! A94   A(29,35,32)           107.6645         estimate D2E/DX2                !
 ! A95   A(29,35,42)           114.487          estimate D2E/DX2                !
 ! A96   A(32,35,42)           113.5197         estimate D2E/DX2                !
 ! A97   A(28,36,43)           113.9947         estimate D2E/DX2                !
 ! A98   A(28,36,44)           111.4927         estimate D2E/DX2                !
 ! A99   A(28,36,45)           110.4501         estimate D2E/DX2                !
 ! A100  A(43,36,44)           105.7272         estimate D2E/DX2                !
 ! A101  A(43,36,45)           107.5312         estimate D2E/DX2                !
 ! A102  A(44,36,45)           107.2942         estimate D2E/DX2                !
 ! A103  A(28,37,46)           111.4749         estimate D2E/DX2                !
 ! A104  A(28,37,47)           113.8997         estimate D2E/DX2                !
 ! A105  A(28,37,48)           109.6473         estimate D2E/DX2                !
 ! A106  A(46,37,47)           106.2774         estimate D2E/DX2                !
 ! A107  A(46,37,48)           107.2382         estimate D2E/DX2                !
 ! A108  A(47,37,48)           108.0145         estimate D2E/DX2                !
 ! D1    D(6,1,2,3)             70.35           estimate D2E/DX2                !
 ! D2    D(6,1,2,18)           -49.3479         estimate D2E/DX2                !
 ! D3    D(6,1,2,19)          -167.9376         estimate D2E/DX2                !
 ! D4    D(7,1,2,3)            -33.3725         estimate D2E/DX2                !
 ! D5    D(7,1,2,18)          -153.0704         estimate D2E/DX2                !
 ! D6    D(7,1,2,19)            88.34           estimate D2E/DX2                !
 ! D7    D(25,1,2,3)          -163.0962         estimate D2E/DX2                !
 ! D8    D(25,1,2,18)           77.2058         estimate D2E/DX2                !
 ! D9    D(25,1,2,19)          -41.3838         estimate D2E/DX2                !
 ! D10   D(2,1,6,5)            -70.7615         estimate D2E/DX2                !
 ! D11   D(2,1,6,10)           168.439          estimate D2E/DX2                !
 ! D12   D(2,1,6,17)            49.4315         estimate D2E/DX2                !
 ! D13   D(7,1,6,5)             32.943          estimate D2E/DX2                !
 ! D14   D(7,1,6,10)           -87.8565         estimate D2E/DX2                !
 ! D15   D(7,1,6,17)           153.136          estimate D2E/DX2                !
 ! D16   D(25,1,6,5)           162.7919         estimate D2E/DX2                !
 ! D17   D(25,1,6,10)           41.9924         estimate D2E/DX2                !
 ! D18   D(25,1,6,17)          -77.0151         estimate D2E/DX2                !
 ! D19   D(2,1,7,4)             53.3614         estimate D2E/DX2                !
 ! D20   D(2,1,7,8)            -62.4877         estimate D2E/DX2                !
 ! D21   D(2,1,7,9)            169.5165         estimate D2E/DX2                !
 ! D22   D(6,1,7,4)            -53.1608         estimate D2E/DX2                !
 ! D23   D(6,1,7,8)           -169.0099         estimate D2E/DX2                !
 ! D24   D(6,1,7,9)             62.9943         estimate D2E/DX2                !
 ! D25   D(25,1,7,4)           179.9773         estimate D2E/DX2                !
 ! D26   D(25,1,7,8)            64.1282         estimate D2E/DX2                !
 ! D27   D(25,1,7,9)           -63.8676         estimate D2E/DX2                !
 ! D28   D(2,1,25,26)          179.9991         estimate D2E/DX2                !
 ! D29   D(2,1,25,27)           59.3328         estimate D2E/DX2                !
 ! D30   D(2,1,25,28)          -60.4249         estimate D2E/DX2                !
 ! D31   D(6,1,25,26)          -59.3341         estimate D2E/DX2                !
 ! D32   D(6,1,25,27)          179.9996         estimate D2E/DX2                !
 ! D33   D(6,1,25,28)           60.242          estimate D2E/DX2                !
 ! D34   D(7,1,25,26)           60.4278         estimate D2E/DX2                !
 ! D35   D(7,1,25,27)          -60.2384         estimate D2E/DX2                !
 ! D36   D(7,1,25,28)         -179.9961         estimate D2E/DX2                !
 ! D37   D(1,2,3,4)             -1.2016         estimate D2E/DX2                !
 ! D38   D(1,2,3,22)          -122.0297         estimate D2E/DX2                !
 ! D39   D(1,2,3,23)           117.8829         estimate D2E/DX2                !
 ! D40   D(18,2,3,4)           118.3499         estimate D2E/DX2                !
 ! D41   D(18,2,3,22)           -2.4782         estimate D2E/DX2                !
 ! D42   D(18,2,3,23)         -122.5656         estimate D2E/DX2                !
 ! D43   D(19,2,3,4)          -122.9279         estimate D2E/DX2                !
 ! D44   D(19,2,3,22)          116.244          estimate D2E/DX2                !
 ! D45   D(19,2,3,23)           -3.8434         estimate D2E/DX2                !
 ! D46   D(2,3,4,5)            -71.7299         estimate D2E/DX2                !
 ! D47   D(2,3,4,7)             36.7252         estimate D2E/DX2                !
 ! D48   D(2,3,4,16)           161.0226         estimate D2E/DX2                !
 ! D49   D(22,3,4,5)            48.0319         estimate D2E/DX2                !
 ! D50   D(22,3,4,7)           156.487          estimate D2E/DX2                !
 ! D51   D(22,3,4,16)          -79.2155         estimate D2E/DX2                !
 ! D52   D(23,3,4,5)           168.2747         estimate D2E/DX2                !
 ! D53   D(23,3,4,7)           -83.2702         estimate D2E/DX2                !
 ! D54   D(23,3,4,16)           41.0273         estimate D2E/DX2                !
 ! D55   D(3,4,5,6)             71.3148         estimate D2E/DX2                !
 ! D56   D(3,4,5,20)          -169.6614         estimate D2E/DX2                !
 ! D57   D(3,4,5,21)           -49.8172         estimate D2E/DX2                !
 ! D58   D(7,4,5,6)            -37.1451         estimate D2E/DX2                !
 ! D59   D(7,4,5,20)            81.8787         estimate D2E/DX2                !
 ! D60   D(7,4,5,21)          -158.2771         estimate D2E/DX2                !
 ! D61   D(16,4,5,6)          -160.877          estimate D2E/DX2                !
 ! D62   D(16,4,5,20)          -41.8532         estimate D2E/DX2                !
 ! D63   D(16,4,5,21)           77.9909         estimate D2E/DX2                !
 ! D64   D(3,4,7,1)            -55.8601         estimate D2E/DX2                !
 ! D65   D(3,4,7,8)             64.3443         estimate D2E/DX2                !
 ! D66   D(3,4,7,9)           -176.1814         estimate D2E/DX2                !
 ! D67   D(5,4,7,1)             56.058          estimate D2E/DX2                !
 ! D68   D(5,4,7,8)            176.2625         estimate D2E/DX2                !
 ! D69   D(5,4,7,9)            -64.2633         estimate D2E/DX2                !
 ! D70   D(16,4,7,1)           179.4977         estimate D2E/DX2                !
 ! D71   D(16,4,7,8)           -60.2978         estimate D2E/DX2                !
 ! D72   D(16,4,7,9)            59.1764         estimate D2E/DX2                !
 ! D73   D(4,5,6,1)              1.7117         estimate D2E/DX2                !
 ! D74   D(4,5,6,10)           123.0605         estimate D2E/DX2                !
 ! D75   D(4,5,6,17)          -117.8002         estimate D2E/DX2                !
 ! D76   D(20,5,6,1)          -117.2828         estimate D2E/DX2                !
 ! D77   D(20,5,6,10)            4.066          estimate D2E/DX2                !
 ! D78   D(20,5,6,17)          123.2053         estimate D2E/DX2                !
 ! D79   D(21,5,6,1)           122.8098         estimate D2E/DX2                !
 ! D80   D(21,5,6,10)         -115.8414         estimate D2E/DX2                !
 ! D81   D(21,5,6,17)            3.2979         estimate D2E/DX2                !
 ! D82   D(1,7,8,11)            39.1829         estimate D2E/DX2                !
 ! D83   D(1,7,8,12)           -80.4332         estimate D2E/DX2                !
 ! D84   D(1,7,8,24)           160.3602         estimate D2E/DX2                !
 ! D85   D(4,7,8,11)           -66.4562         estimate D2E/DX2                !
 ! D86   D(4,7,8,12)           173.9277         estimate D2E/DX2                !
 ! D87   D(4,7,8,24)            54.7211         estimate D2E/DX2                !
 ! D88   D(9,7,8,11)           171.5777         estimate D2E/DX2                !
 ! D89   D(9,7,8,12)            51.9615         estimate D2E/DX2                !
 ! D90   D(9,7,8,24)           -67.2451         estimate D2E/DX2                !
 ! D91   D(1,7,9,13)            80.6576         estimate D2E/DX2                !
 ! D92   D(1,7,9,14)           -39.5817         estimate D2E/DX2                !
 ! D93   D(1,7,9,15)          -160.7451         estimate D2E/DX2                !
 ! D94   D(4,7,9,13)          -173.5247         estimate D2E/DX2                !
 ! D95   D(4,7,9,14)            66.2361         estimate D2E/DX2                !
 ! D96   D(4,7,9,15)           -54.9273         estimate D2E/DX2                !
 ! D97   D(8,7,9,13)           -51.7176         estimate D2E/DX2                !
 ! D98   D(8,7,9,14)          -171.9568         estimate D2E/DX2                !
 ! D99   D(8,7,9,15)            66.8798         estimate D2E/DX2                !
 ! D100  D(1,25,26,29)         163.0962         estimate D2E/DX2                !
 ! D101  D(1,25,26,30)         -77.2046         estimate D2E/DX2                !
 ! D102  D(1,25,26,31)          41.3875         estimate D2E/DX2                !
 ! D103  D(27,25,26,29)        -70.3469         estimate D2E/DX2                !
 ! D104  D(27,25,26,30)         49.3523         estimate D2E/DX2                !
 ! D105  D(27,25,26,31)        167.9443         estimate D2E/DX2                !
 ! D106  D(28,25,26,29)         33.3695         estimate D2E/DX2                !
 ! D107  D(28,25,26,30)        153.0687         estimate D2E/DX2                !
 ! D108  D(28,25,26,31)        -88.3393         estimate D2E/DX2                !
 ! D109  D(1,25,27,32)        -162.7908         estimate D2E/DX2                !
 ! D110  D(1,25,27,33)         -41.9869         estimate D2E/DX2                !
 ! D111  D(1,25,27,34)          77.0097         estimate D2E/DX2                !
 ! D112  D(26,25,27,32)         70.7604         estimate D2E/DX2                !
 ! D113  D(26,25,27,33)       -168.4356         estimate D2E/DX2                !
 ! D114  D(26,25,27,34)        -49.4391         estimate D2E/DX2                !
 ! D115  D(28,25,27,32)        -32.9435         estimate D2E/DX2                !
 ! D116  D(28,25,27,33)         87.8605         estimate D2E/DX2                !
 ! D117  D(28,25,27,34)       -153.143          estimate D2E/DX2                !
 ! D118  D(1,25,28,35)        -179.9755         estimate D2E/DX2                !
 ! D119  D(1,25,28,36)         -64.1353         estimate D2E/DX2                !
 ! D120  D(1,25,28,37)          63.8629         estimate D2E/DX2                !
 ! D121  D(26,25,28,35)        -53.355          estimate D2E/DX2                !
 ! D122  D(26,25,28,36)         62.4853         estimate D2E/DX2                !
 ! D123  D(26,25,28,37)       -169.5166         estimate D2E/DX2                !
 ! D124  D(27,25,28,35)         53.1623         estimate D2E/DX2                !
 ! D125  D(27,25,28,36)        169.0026         estimate D2E/DX2                !
 ! D126  D(27,25,28,37)        -62.9993         estimate D2E/DX2                !
 ! D127  D(25,26,29,35)          1.2016         estimate D2E/DX2                !
 ! D128  D(25,26,29,38)        122.0312         estimate D2E/DX2                !
 ! D129  D(25,26,29,39)       -117.8872         estimate D2E/DX2                !
 ! D130  D(30,26,29,35)       -118.3514         estimate D2E/DX2                !
 ! D131  D(30,26,29,38)          2.4782         estimate D2E/DX2                !
 ! D132  D(30,26,29,39)        122.5597         estimate D2E/DX2                !
 ! D133  D(31,26,29,35)        122.9305         estimate D2E/DX2                !
 ! D134  D(31,26,29,38)       -116.2399         estimate D2E/DX2                !
 ! D135  D(31,26,29,39)          3.8416         estimate D2E/DX2                !
 ! D136  D(25,27,32,35)         -1.7128         estimate D2E/DX2                !
 ! D137  D(25,27,32,40)        117.285          estimate D2E/DX2                !
 ! D138  D(25,27,32,41)       -122.8177         estimate D2E/DX2                !
 ! D139  D(33,27,32,35)       -123.0524         estimate D2E/DX2                !
 ! D140  D(33,27,32,40)         -4.0546         estimate D2E/DX2                !
 ! D141  D(33,27,32,41)        115.8427         estimate D2E/DX2                !
 ! D142  D(34,27,32,35)        117.7949         estimate D2E/DX2                !
 ! D143  D(34,27,32,40)       -123.2072         estimate D2E/DX2                !
 ! D144  D(34,27,32,41)         -3.3099         estimate D2E/DX2                !
 ! D145  D(25,28,35,29)         55.8553         estimate D2E/DX2                !
 ! D146  D(25,28,35,32)        -56.0623         estimate D2E/DX2                !
 ! D147  D(25,28,35,42)       -179.4998         estimate D2E/DX2                !
 ! D148  D(36,28,35,29)        -64.3431         estimate D2E/DX2                !
 ! D149  D(36,28,35,32)       -176.2607         estimate D2E/DX2                !
 ! D150  D(36,28,35,42)         60.3018         estimate D2E/DX2                !
 ! D151  D(37,28,35,29)        176.1813         estimate D2E/DX2                !
 ! D152  D(37,28,35,32)         64.2637         estimate D2E/DX2                !
 ! D153  D(37,28,35,42)        -59.1738         estimate D2E/DX2                !
 ! D154  D(25,28,36,43)        -39.1747         estimate D2E/DX2                !
 ! D155  D(25,28,36,44)         80.4384         estimate D2E/DX2                !
 ! D156  D(25,28,36,45)       -160.3646         estimate D2E/DX2                !
 ! D157  D(35,28,36,43)         66.4575         estimate D2E/DX2                !
 ! D158  D(35,28,36,44)       -173.9295         estimate D2E/DX2                !
 ! D159  D(35,28,36,45)        -54.7324         estimate D2E/DX2                !
 ! D160  D(37,28,36,43)       -171.5726         estimate D2E/DX2                !
 ! D161  D(37,28,36,44)        -51.9595         estimate D2E/DX2                !
 ! D162  D(37,28,36,45)         67.2375         estimate D2E/DX2                !
 ! D163  D(25,28,37,46)        -80.6594         estimate D2E/DX2                !
 ! D164  D(25,28,37,47)         39.5908         estimate D2E/DX2                !
 ! D165  D(25,28,37,48)        160.7472         estimate D2E/DX2                !
 ! D166  D(35,28,37,46)        173.5191         estimate D2E/DX2                !
 ! D167  D(35,28,37,47)        -66.2308         estimate D2E/DX2                !
 ! D168  D(35,28,37,48)         54.9257         estimate D2E/DX2                !
 ! D169  D(36,28,37,46)         51.7153         estimate D2E/DX2                !
 ! D170  D(36,28,37,47)        171.9655         estimate D2E/DX2                !
 ! D171  D(36,28,37,48)        -66.878          estimate D2E/DX2                !
 ! D172  D(26,29,35,28)        -36.7237         estimate D2E/DX2                !
 ! D173  D(26,29,35,32)         71.7305         estimate D2E/DX2                !
 ! D174  D(26,29,35,42)       -161.023          estimate D2E/DX2                !
 ! D175  D(38,29,35,28)       -156.486          estimate D2E/DX2                !
 ! D176  D(38,29,35,32)        -48.0319         estimate D2E/DX2                !
 ! D177  D(38,29,35,42)         79.2147         estimate D2E/DX2                !
 ! D178  D(39,29,35,28)         83.2792         estimate D2E/DX2                !
 ! D179  D(39,29,35,32)       -168.2666         estimate D2E/DX2                !
 ! D180  D(39,29,35,42)        -41.02           estimate D2E/DX2                !
 ! D181  D(27,32,35,28)         37.149          estimate D2E/DX2                !
 ! D182  D(27,32,35,29)        -71.3147         estimate D2E/DX2                !
 ! D183  D(27,32,35,42)        160.8779         estimate D2E/DX2                !
 ! D184  D(40,32,35,28)        -81.8761         estimate D2E/DX2                !
 ! D185  D(40,32,35,29)        169.6602         estimate D2E/DX2                !
 ! D186  D(40,32,35,42)         41.8528         estimate D2E/DX2                !
 ! D187  D(41,32,35,28)        158.2845         estimate D2E/DX2                !
 ! D188  D(41,32,35,29)         49.8208         estimate D2E/DX2                !
 ! D189  D(41,32,35,42)        -77.9866         estimate D2E/DX2                !
 --------------------------------------------------------------------------------
 Number of steps in this run=    288 maximum allowed number of steps=    288.
 GradGradGradGradGradGradGradGradGradGradGradGradGradGradGradGradGradGrad

                    Distance matrix (angstroms):
                    1          2          3          4          5
     1  C    0.000000
     2  C    1.558816   0.000000
     3  C    2.459903   1.547391   0.000000
     4  C    2.285410   2.404934   1.527413   0.000000
     5  C    2.461879   2.910670   2.464959   1.525928   0.000000
     6  C    1.554987   2.453564   2.901455   2.401140   1.549254
     7  C    1.584882   2.416767   2.406988   1.547409   2.405716
     8  C    2.651774   2.966748   2.898444   2.542551   3.805981
     9  C    2.651658   3.858502   3.808814   2.545791   2.900923
    10  H    2.140828   3.348615   3.841083   3.104787   2.125818
    11  H    2.792424   2.617469   2.650064   2.836607   4.154089
    12  H    3.042935   3.604169   3.820945   3.422959   4.524409
    13  H    3.044725   4.342888   4.525841   3.425706   3.826108
    14  H    2.796008   4.136422   4.159742   2.842174   2.650560
    15  H    3.448061   4.452023   4.083300   2.698362   3.213375
    16  H    3.229886   3.303248   2.141956   0.996570   2.129628
    17  H    2.121390   2.553918   3.168410   3.071067   2.128405
    18  H    2.144094   1.019983   2.136501   3.090270   3.189842
    19  H    2.156057   1.014713   2.145532   3.126482   3.866369
    20  H    3.133707   3.843655   3.356468   2.114980   1.013370
    21  H    3.192668   3.245144   2.628293   2.140041   1.027052
    22  H    3.167093   2.136581   1.017687   2.137036   2.616705
    23  H    3.133554   2.134967   0.999756   2.101530   3.339061
    24  H    3.466851   3.685730   3.221844   2.709192   4.095746
    25  C    1.544207   2.614799   3.870651   3.784737   3.872939
    26  C    2.614766   4.018603   5.051814   4.543796   4.412612
    27  C    2.614223   3.180363   4.413913   4.544229   5.052596
    28  C    2.704393   3.296528   4.762388   4.959234   4.765959
    29  C    3.870640   5.051814   6.299311   5.988562   5.799414
    30  H    2.980142   4.395484   5.249960   4.592548   4.688234
    31  H    2.752066   4.251524   5.125239   4.428403   3.993729
    32  C    3.872939   4.412596   5.799394   5.991227   6.303684
    33  H    2.749798   2.795320   4.004885   4.434816   5.128485
    34  H    2.963489   3.693602   4.678928   4.584091   5.237233
    35  C    3.784737   4.543800   5.988558   6.058885   5.991227
    36  C    3.356305   4.046943   5.342719   5.384730   4.742091
    37  C    3.354190   3.205675   4.735325   5.381782   5.342514
    38  H    4.580125   5.772808   6.972853   6.603332   6.545008
    39  H    4.408110   5.619169   6.848358   6.480549   6.064490
    40  H    4.402679   4.616522   6.048649   6.472514   6.844927
    41  H    4.608036   5.270524   6.570200   6.634021   7.003466
    42  H    4.678228   5.318744   6.810175   6.963302   6.816054
    43  H    3.455323   4.446137   5.600225   5.371541   4.599662
    44  H    3.290421   3.738790   4.912742   5.052975   4.276948
    45  H    4.303075   4.881923   6.229251   6.352848   5.695316
    46  H    3.290656   2.849693   4.273695   5.052375   4.912830
    47  H    3.457741   3.089709   4.595554   5.372045   5.605747
    48  H    4.283239   4.158997   5.675422   6.333787   6.211716
                    6          7          8          9         10
     6  C    0.000000
     7  C    2.414256   0.000000
     8  C    3.855129   1.534820   0.000000
     9  C    2.971287   1.534073   2.469872   0.000000
    10  H    0.999364   2.846507   4.322067   2.901048   0.000000
    11  H    4.127463   2.126222   0.974115   3.347369   4.741954
    12  H    4.340909   2.122422   1.007594   2.625041   4.642356
    13  H    3.612969   2.122152   2.622957   1.008627   3.419141
    14  H    2.622589   2.131723   3.356250   0.983817   2.282339
    15  H    3.676089   2.073419   2.699759   0.971385   3.660585
    16  H    3.294320   2.154103   2.804796   2.801278   3.890162
    17  H    0.999238   3.273545   4.609758   3.965325   1.605340
    18  H    2.565911   3.296501   3.982190   4.633904   3.468575
    19  H    3.361600   2.862602   2.905033   4.335451   4.174602
    20  H    2.136375   2.790198   4.208379   2.733714   2.278735
    21  H    2.161559   3.312290   4.601823   3.916285   2.801080
    22  H    3.211983   3.301145   3.907202   4.595007   4.185331
    23  H    3.826604   2.791854   2.741878   4.208351   4.729394
    24  H    4.467812   2.094332   0.986231   2.719476   4.927281
    25  C    2.614050   2.704361   3.356216   3.354190   2.749798
    26  C    3.180222   3.296528   4.046819   3.205707   2.795356
    27  C    4.014879   3.296132   3.209587   4.039940   4.244268
    28  C    3.296035   4.155303   4.835427   4.834242   3.388706
    29  C    4.413776   4.762388   5.342605   4.735357   4.004922
    30  H    3.709632   3.170554   3.678584   2.811228   3.347791
    31  H    2.790836   3.386595   4.437912   3.053488   2.134243
    32  C    5.052423   4.765908   4.741997   5.342514   5.128485
    33  H    4.244110   3.388625   3.061991   4.430097   4.680224
    34  H    4.376182   3.163401   2.818473   3.668205   4.523890
    35  C    4.544064   4.959203   5.384634   5.381782   4.434816
    36  C    3.209571   4.835502   5.848805   5.300367   3.062070
    37  C    4.039802   4.834185   5.300296   5.846297   4.430097
    38  H    5.249579   5.248945   5.626120   5.078545   4.821967
    39  H    4.634092   5.375604   6.135473   5.238119   4.079684
    40  H    5.613064   5.372099   5.234947   6.134182   5.811316
    41  H    5.798420   5.281743   5.114858   5.655751   5.774202
    42  H    5.322790   5.926100   6.353158   6.353592   5.190816
    43  H    3.093225   4.759917   5.890585   4.942606   2.647880
    44  H    2.847757   4.798187   5.914602   5.393808   2.880138
    45  H    4.176249   5.795709   6.743463   6.248012   4.002218
    46  H    3.729866   4.799615   5.397286   5.914298   4.262405
    47  H    4.445484   4.761350   4.941765   5.890943   4.931978
    48  H    4.856779   5.777287   6.233625   6.722275   5.157067
                   11         12         13         14         15
    11  H    0.000000
    12  H    1.579875   0.000000
    13  H    3.515984   2.376272   0.000000
    14  H    4.160649   3.528268   1.594121   0.000000
    15  H    3.626756   2.942168   1.594286   1.581999   0.000000
    16  H    3.183942   3.710319   3.707406   3.179064   2.591079
    17  H    4.719635   5.118131   4.571659   3.600177   4.665092
    18  H    3.615356   4.584908   5.142506   4.746062   5.269020
    19  H    2.285795   3.412126   4.649869   4.762937   4.921615
    20  H    4.735637   4.840149   3.685495   2.275727   2.886169
    21  H    4.812294   5.397794   4.850845   3.646839   4.154132
    22  H    3.640415   4.836779   5.388276   4.804389   4.830484
    23  H    2.295231   3.692372   4.841986   4.736601   4.355940
    24  H    1.581093   1.605842   2.957730   3.654815   2.584790
    25  C    3.455389   3.290424   3.290607   3.457688   4.283239
    26  C    4.446151   3.738790   2.849642   3.089680   4.159031
    27  C    3.093325   2.847796   3.729930   4.445586   4.856911
    28  C    4.759965   4.798187   4.799614   4.761360   5.777341
    29  C    5.600235   4.912742   4.273637   4.595512   5.675454
    30  H    4.214271   3.187269   2.178818   2.888335   3.683335
    31  H    4.934641   4.275722   2.883589   2.631664   3.981353
    32  C    4.599654   4.276914   4.912766   5.605687   6.211716
    33  H    2.647863   2.880077   4.262380   4.931952   5.157067
    34  H    2.891368   2.188262   3.177400   4.208297   4.401109
    35  C    5.371569   5.052964   5.052300   5.371970   6.333787
    36  C    5.890746   5.914676   5.397286   4.941765   6.233700
    37  C    4.942648   5.393776   5.914256   5.890898   6.722275
    38  H    5.925192   5.031429   4.437200   5.031409   5.960335
    39  H    6.429228   5.772198   4.849695   4.919784   6.174744
    40  H    4.912223   4.845445   5.773651   6.435368   6.980320
    41  H    5.061763   4.471312   5.060697   5.959605   6.482396
    42  H    6.287548   6.021070   6.023868   6.292870   7.311291
    43  H    6.090075   5.911175   5.008840   4.451390   5.868071
    44  H    5.911245   6.147195   5.670439   5.002684   6.267465
    45  H    6.737073   6.757105   6.285028   5.879374   7.190655
    46  H    5.008964   5.670454   6.149202   5.911541   6.738549
    47  H    4.451486   5.002690   5.911541   6.096097   6.717286
    48  H    5.868106   6.267430   6.738500   6.717234   7.621414
                   16         17         18         19         20
    16  H    0.000000
    17  H    3.982759   0.000000
    18  H    4.005062   2.255508   0.000000
    19  H    3.919199   3.468358   1.628698   0.000000
    20  H    2.384345   2.815017   4.170614   4.761296   0.000000
    21  H    2.595669   2.307992   3.276962   4.234055   1.639294
    22  H    2.612898   3.233882   2.279552   2.800519   3.535278
    23  H    2.384440   4.139940   2.820050   2.305494   4.135775
    24  H    2.604325   5.263351   4.695028   3.677035   4.373213
    25  C    4.678228   2.963404   2.980177   2.751991   4.402613
    26  C    5.318746   3.693513   4.395484   4.251390   4.616522
    27  C    5.322947   4.376259   3.709769   2.790877   5.613163
    28  C    5.926132   3.163405   3.170554   3.386466   5.372099
    29  C    6.810184   4.678867   5.249960   5.125107   6.048649
    30  H    5.231775   4.391890   4.957028   4.545633   4.785752
    31  H    5.176519   3.330222   4.545755   4.696812   4.046156
    32  C    6.816054   5.237164   4.688222   3.993640   6.844862
    33  H    5.190816   4.523815   3.347767   2.134174   5.811234
    34  H    5.230062   4.917361   4.391991   3.330247   5.672474
    35  C    6.963302   4.584034   4.592557   4.428307   6.472460
    36  C    6.353253   2.818555   3.678716   4.437912   5.234988
    37  C    6.353592   3.668182   2.811198   3.053394   6.134104
    38  H    7.356249   5.607822   6.074983   5.744752   6.732673
    39  H    7.314316   4.796819   5.691402   5.811411   6.242236
    40  H    7.311101   5.672478   4.785752   4.046086   7.484835
    41  H    7.390753   6.082592   5.637587   4.830834   7.453784
    42  H    7.889954   5.230019   5.231776   5.176420   7.311048
    43  H    6.287524   2.891359   4.214279   4.934481   4.912215
    44  H    6.021085   2.188308   3.187269   4.275602   4.845445
    45  H    7.327115   3.705440   4.425604   5.181890   6.183007
    46  H    6.023946   3.177442   2.178876   2.883589   5.773626
    47  H    6.292948   4.208300   2.888360   2.631664   6.435337
    48  H    7.311291   4.401098   3.683302   3.981260   6.980246
                   21         22         23         24         25
    21  H    0.000000
    22  H    2.366263   0.000000
    23  H    3.521355   1.625111   0.000000
    24  H    4.844611   4.161363   2.896454   0.000000
    25  C    4.607997   4.580135   4.408022   4.303071   0.000000
    26  C    5.270524   5.772808   5.619056   4.881923   1.558739
    27  C    5.798542   5.249719   4.634092   4.176322   1.555131
    28  C    5.281743   5.248945   5.375511   5.795709   1.584916
    29  C    6.570200   6.972853   6.848243   6.229251   2.459873
    30  H    5.637587   6.074983   5.691280   4.425604   2.144029
    31  H    4.830921   5.744876   5.811450   5.182013   2.156087
    32  C    7.003417   6.544990   6.064356   5.695285   2.461879
    33  H    5.774138   4.821937   4.079535   4.002167   2.140828
    34  H    6.082626   5.607891   4.796741   3.705417   2.121483
    35  C    6.633984   6.603328   6.480443   6.352835   2.285410
    36  C    5.114927   5.626235   6.135519   6.743547   2.651833
    37  C    5.655685   5.078516   5.238024   6.247979   2.651658
    38  H    7.379113   7.722138   7.431824   6.468536   3.167069
    39  H    6.774506   7.431948   7.491072   7.000858   3.133606
    40  H    7.453784   6.732673   6.242118   6.183007   3.133788
    41  H    7.776220   7.379113   6.774375   6.008972   3.192714
    42  H    7.390715   7.356241   7.314209   7.327099   3.229886
    43  H    5.061779   5.925199   6.429137   6.737018   2.792310
    44  H    4.471312   5.031429   5.772147   6.757105   3.042921
    45  H    6.008972   6.468536   7.000789   7.660704   3.466847
    46  H    5.060696   4.437264   4.849716   6.285061   3.044732
    47  H    5.959595   5.031455   4.919760   5.879400   2.796023
    48  H    6.482333   5.960304   6.174649   7.190621   3.448061
                   26         27         28         29         30
    26  C    0.000000
    27  C    2.453553   0.000000
    28  C    2.416767   2.414298   0.000000
    29  C    1.547391   2.901393   2.406988   0.000000
    30  H    1.019983   2.565878   3.296501   2.136501   0.000000
    31  H    1.014786   3.361723   2.862676   2.145519   1.628753
    32  C    2.910575   1.549126   2.405673   2.464865   3.189750
    33  H    3.348524   0.999371   2.846460   3.841014   3.468481
    34  H    2.553894   0.999305   3.273630   3.168403   2.255431
    35  C    2.404857   2.401110   1.547401   1.527320   3.090204
    36  C    2.966749   3.855251   1.534913   2.898410   3.982195
    37  C    3.858422   2.971327   1.533985   3.808744   4.633833
    38  H    2.136581   3.211886   3.301145   1.017687   2.279552
    39  H    2.135040   3.826604   2.791956   0.999761   2.820085
    40  H    3.843655   2.136312   2.790198   3.356468   4.170614
    41  H    3.245144   2.161426   3.312290   2.628293   3.276962
    42  H    3.303181   3.294272   2.154081   2.141874   4.005002
    43  H    2.617375   4.127424   2.126184   2.649969   3.615262
    44  H    3.604169   4.340980   2.122422   3.820945   4.584908
    45  H    3.685730   4.467838   2.094332   3.221844   4.695028
    46  H    4.342807   3.613048   2.122051   4.525740   5.142441
    47  H    4.136323   2.622616   2.131596   4.159619   4.745980
    48  H    4.451945   3.676097   2.073336   4.083226   5.268950
                   31         32         33         34         35
    31  H    0.000000
    32  C    3.866346   0.000000
    33  H    4.174631   2.125818   0.000000
    34  H    3.468437   2.128444   1.605409   0.000000
    35  C    3.126432   1.525928   3.104787   3.071127   0.000000
    36  C    2.905033   3.805982   4.322116   4.609886   2.542527
    37  C    4.335446   2.900923   2.901048   3.965417   2.545791
    38  H    2.800495   2.616616   4.185268   3.233845   2.136970
    39  H    2.305526   3.338983   4.729383   4.139964   2.101467
    40  H    4.761372   1.013466   2.278765   2.815120   2.115070
    41  H    4.234107   1.027043   2.801066   2.308020   2.140079
    42  H    3.919137   2.129628   3.890162   3.982814   0.996570
    43  H    2.285698   4.153948   4.741829   4.719591   2.836469
    44  H    3.412165   4.524365   4.642306   5.118203   3.422927
    45  H    3.677038   4.095704   4.927240   5.263418   2.709162
    46  H    4.649869   3.826074   3.419163   4.571766   3.425649
    47  H    4.762937   2.650519   2.282383   3.600281   2.842112
    48  H    4.921594   3.213375   3.660585   4.665178   2.698362
                   36         37         38         39         40
    36  C    0.000000
    37  C    2.469901   0.000000
    38  H    3.907168   4.594950   0.000000
    39  H    2.741927   4.208365   1.625033   0.000000
    40  H    4.208449   2.733738   3.535278   4.135787   0.000000
    41  H    4.601857   3.916275   2.366263   3.521326   1.639294
    42  H    2.804742   2.801278   2.612831   2.384348   2.384410
    43  H    0.974042   3.347268   3.640320   2.295283   4.735580
    44  H    1.007658   2.624952   4.836779   3.692506   4.840149
    45  H    0.986170   2.719401   4.161363   2.896557   4.373213
    46  H    2.622957   1.008565   5.388184   4.841976   3.685478
    47  H    3.356250   0.983775   4.804275   4.736545   2.275674
    48  H    2.699755   0.971385   4.830422   4.355933   2.886179
                   41         42         43         44         45
    41  H    0.000000
    42  H    2.595687   0.000000
    43  H    4.812213   3.183818   0.000000
    44  H    5.397794   3.710280   1.579942   0.000000
    45  H    4.844611   2.604280   1.581134   1.605842   0.000000
    46  H    4.850803   3.707329   3.515872   2.376149   2.957589
    47  H    3.646768   3.178981   4.160508   3.528169   3.654686
    48  H    4.154113   2.591079   3.626662   2.942076   2.584696
                   46         47         48
    46  H    0.000000
    47  H    1.594121   0.000000
    48  H    1.594195   1.581920   0.000000
 Framework group  C1[X(C18H30)]
 Deg. of freedom   138
                         Standard orientation:                         
 ---------------------------------------------------------------------
 Center     Atomic      Atomic             Coordinates (Angstroms)
 Number     Number       Type             X           Y           Z
 ---------------------------------------------------------------------
      1          6           0       -0.735446    0.235139   -0.000633
      2          6           0       -1.146768    1.102412    1.227601
      3          6           0       -2.693880    1.073064    1.229629
      4          6           0       -3.020845    0.228306   -0.000195
      5          6           0       -2.697444    1.063985   -1.235310
      6          6           0       -1.148609    1.098767   -1.225960
      7          6           0       -1.900623   -0.839202    0.001795
      8          6           0       -1.996134   -1.740121    1.240704
      9          6           0       -1.992837   -1.750060   -1.229146
     10          1           0       -0.773794    0.740969   -2.080491
     11          1           0       -1.818816   -1.279241    2.080375
     12          1           0       -1.332172   -2.496873    1.199152
     13          1           0       -1.330858   -2.509271   -1.177088
     14          1           0       -1.817051   -1.288978   -2.080262
     15          1           0       -2.879419   -2.143946   -1.278311
     16          1           0       -3.942068   -0.151759   -0.007225
     17          1           0       -0.804905    2.031751   -1.126536
     18          1           0       -0.799847    2.056485    1.128831
     19          1           0       -0.757745    0.745309    2.094078
     20          1           0       -3.049529    0.624115   -2.077610
     21          1           0       -3.111760    2.002805   -1.192948
     22          1           0       -3.078566    2.013543    1.173057
     23          1           0       -3.061014    0.650664    2.058064
     24          1           0       -2.894544   -2.141609    1.306433
     25          6           0        0.735410   -0.235135    0.000594
     26          6           0        1.146761   -1.102389   -1.227546
     27          6           0        1.148702   -1.098843    1.226004
     28          6           0        1.900616    0.839225   -0.001740
     29          6           0        2.693872   -1.073041   -1.229575
     30          1           0        0.799840   -2.056462   -1.128776
     31          1           0        0.757805   -0.745306   -2.094146
     32          6           0        2.697408   -1.063980    1.235271
     33          1           0        0.773758   -0.740965    2.080452
     34          1           0        0.804874   -2.031845    1.126515
     35          6           0        3.020809   -0.228302    0.000155
     36          6           0        1.996194    1.740125   -1.240772
     37          6           0        1.992801    1.750064    1.229107
     38          1           0        3.078558   -2.013520   -1.173002
     39          1           0        3.061107   -0.650739   -2.058020
     40          1           0        3.049522   -0.624092    2.077665
     41          1           0        3.111753   -2.002782    1.193003
     42          1           0        3.942032    0.151763    0.007186
     43          1           0        1.818813    1.279165   -2.080302
     44          1           0        1.332164    2.496896   -1.199097
     45          1           0        2.894537    2.141631   -1.306379
     46          1           0        1.330918    2.509275    1.177020
     47          1           0        1.817111    1.288982    2.080194
     48          1           0        2.879382    2.143950    1.278272
 ---------------------------------------------------------------------
 Rotational constants (GHZ):      0.7660053      0.3656552      0.3475087
   504 basis functions,   816 primitive gaussians,   522 cartesian basis functions
    69 alpha electrons       69 beta electrons
       nuclear repulsion energy      1584.2045867419 Hartrees.
 NAtoms=   48 NActive=   48 NUniq=   48 SFac= 1.00D+00 NAtFMM=   60 NAOKFM=F Big=F
 ExpMin= 1.03D-01 ExpMax= 4.56D+03 ExpMxC= 6.82D+02 IAcc=1 IRadAn=         1 AccDes= 0.00D+00
 Harris functional with IExCor=  402 and IRadAn=       1 diagonalized for initial guess.
 HarFok:  IExCor=  402 AccDes= 0.00D+00 IRadAn=         1 IDoV= 1 UseB2=F ITyADJ=14
 ICtDFT=  3500011 ScaDFX=  1.000000  1.000000  1.000000  1.000000
 FoFCou: FMM=F IPFlag=           0 FMFlag=      100000 FMFlg1=           0
         NFxFlg=           0 DoJE=T BraDBF=F KetDBF=T FulRan=T
         wScrn=  0.000000 ICntrl=     500 IOpCl=  0 I1Cent=   200000004 NGrid=           0
         NMat0=    1 NMatS0=      1 NMatT0=    0 NMatD0=    1 NMtDS0=    0 NMtDT0=    0
 Petite list used in FoFCou.
 Integral accuracy reduced to 1.0D-05 until final iterations.
 Initial convergence to 1.0D-05 achieved.  Increase integral accuracy.
 SCF Done:  E(RB3LYP) =  -703.952442085     A.U. after   14 cycles
            NFock= 14  Conv=0.37D-08     -V/T= 1.9985

 **********************************************************************

            Population analysis using the SCF density.

 **********************************************************************

 Orbital symmetries:
       Occupied  (A) (A) (A) (A) (A) (A) (A) (A) (A) (A) (A) (A)
                 (A) (A) (A) (A) (A) (A) (A) (A) (A) (A) (A) (A)
                 (A) (A) (A) (A) (A) (A) (A) (A) (A) (A) (A) (A)
                 (A) (A) (A) (A) (A) (A) (A) (A) (A) (A) (A) (A)
                 (A) (A) (A) (A) (A) (A) (A) (A) (A) (A) (A) (A)
                 (A) (A) (A) (A) (A) (A) (A) (A) (A)
       Virtual   (A) (A) (A) (A) (A) (A) (A) (A) (A) (A) (A) (A)
                 (A) (A) (A) (A) (A) (A) (A) (A) (A) (A) (A) (A)
                 (A) (A) (A) (A) (A) (A) (A) (A) (A) (A) (A) (A)
                 (A) (A) (A) (A) (A) (A) (A) (A) (A) (A) (A) (A)
                 (A) (A) (A) (A) (A) (A) (A) (A) (A) (A) (A) (A)
                 (A) (A) (A) (A) (A) (A) (A) (A) (A) (A) (A) (A)
                 (A) (A) (A) (A) (A) (A) (A) (A) (A) (A) (A) (A)
                 (A) (A) (A) (A) (A) (A) (A) (A) (A) (A) (A) (A)
                 (A) (A) (A) (A) (A) (A) (A) (A) (A) (A) (A) (A)
                 (A) (A) (A) (A) (A) (A) (A) (A) (A) (A) (A) (A)
                 (A) (A) (A) (A) (A) (A) (A) (A) (A) (A) (A) (A)
                 (A) (A) (A) (A) (A) (A) (A) (A) (A) (A) (A) (A)
                 (A) (A) (A) (A) (A) (A) (A) (A) (A) (A) (A) (A)
                 (A) (A) (A) (A) (A) (A) (A) (A) (A) (A) (A) (A)
                 (A) (A) (A) (A) (A) (A) (A) (A) (A) (A) (A) (A)
                 (A) (A) (A) (A) (A) (A) (A) (A) (A) (A) (A) (A)
                 (A) (A) (A) (A) (A) (A) (A) (A) (A) (A) (A) (A)
                 (A) (A) (A) (A) (A) (A) (A) (A) (A) (A) (A) (A)
                 (A) (A) (A) (A) (A) (A) (A) (A) (A) (A) (A) (A)
                 (A) (A) (A) (A) (A) (A) (A) (A) (A) (A) (A) (A)
                 (A) (A) (A) (A) (A) (A) (A) (A) (A) (A) (A) (A)
                 (A) (A) (A) (A) (A) (A) (A) (A) (A) (A) (A) (A)
                 (A) (A) (A) (A) (A) (A) (A) (A) (A) (A) (A) (A)
                 (A) (A) (A) (A) (A) (A) (A) (A) (A) (A) (A) (A)
                 (A) (A) (A) (A) (A) (A) (A) (A) (A) (A) (A) (A)
                 (A) (A) (A) (A) (A) (A) (A) (A) (A) (A) (A) (A)
                 (A) (A) (A) (A) (A) (A) (A) (A) (A) (A) (A) (A)
                 (A) (A) (A) (A) (A) (A) (A) (A) (A) (A) (A) (A)
                 (A) (A) (A) (A) (A) (A) (A) (A) (A) (A) (A) (A)
                 (A) (A) (A) (A) (A) (A) (A) (A) (A) (A) (A) (A)
                 (A) (A) (A) (A) (A) (A) (A) (A) (A) (A) (A) (A)
                 (A) (A) (A) (A) (A) (A) (A) (A) (A) (A) (A) (A)
                 (A) (A) (A) (A) (A) (A) (A) (A) (A) (A) (A) (A)
                 (A) (A) (A) (A) (A) (A) (A) (A) (A) (A) (A) (A)
                 (A) (A) (A) (A) (A) (A) (A) (A) (A) (A) (A) (A)
                 (A) (A) (A) (A) (A) (A) (A) (A) (A) (A) (A) (A)
                 (A) (A) (A)
 The electronic state is 1-A.
 Alpha  occ. eigenvalues --  -10.16608 -10.16587 -10.16518 -10.16517 -10.14219
 Alpha  occ. eigenvalues --  -10.14218 -10.13362 -10.13361 -10.13352 -10.13351
 Alpha  occ. eigenvalues --  -10.13151 -10.13150 -10.12958 -10.12957 -10.11442
 Alpha  occ. eigenvalues --  -10.11442 -10.11397 -10.11396  -0.88354  -0.86573
 Alpha  occ. eigenvalues --   -0.77524  -0.76855  -0.75552  -0.75134  -0.74537
 Alpha  occ. eigenvalues --   -0.70533  -0.70213  -0.70071  -0.65476  -0.64052
 Alpha  occ. eigenvalues --   -0.62471  -0.60751  -0.55425  -0.55405  -0.53418
 Alpha  occ. eigenvalues --   -0.51260  -0.50620  -0.48806  -0.48272  -0.47287
 Alpha  occ. eigenvalues --   -0.46072  -0.44306  -0.44184  -0.42613  -0.41604
 Alpha  occ. eigenvalues --   -0.40990  -0.40782  -0.40768  -0.40096  -0.39834
 Alpha  occ. eigenvalues --   -0.39507  -0.38446  -0.38129  -0.37491  -0.36846
 Alpha  occ. eigenvalues --   -0.35213  -0.34465  -0.33750  -0.32945  -0.32832
 Alpha  occ. eigenvalues --   -0.31631  -0.31448  -0.31042  -0.30705  -0.29905
 Alpha  occ. eigenvalues --   -0.29761  -0.29573  -0.27175  -0.26161
 Alpha virt. eigenvalues --    0.04385   0.05875   0.06259   0.06784   0.07303
 Alpha virt. eigenvalues --    0.08245   0.08960   0.09230   0.10638   0.10772
 Alpha virt. eigenvalues --    0.11014   0.11330   0.11383   0.12217   0.13143
 Alpha virt. eigenvalues --    0.13920   0.14182   0.14617   0.15099   0.15950
 Alpha virt. eigenvalues --    0.16043   0.16165   0.17064   0.17775   0.18154
 Alpha virt. eigenvalues --    0.18484   0.19460   0.19478   0.19814   0.20442
 Alpha virt. eigenvalues --    0.21047   0.21971   0.22046   0.22077   0.23521
 Alpha virt. eigenvalues --    0.23790   0.24066   0.24270   0.25506   0.25603
 Alpha virt. eigenvalues --    0.25652   0.26116   0.27058   0.27777   0.28108
 Alpha virt. eigenvalues --    0.28657   0.29380   0.29668   0.30509   0.31311
 Alpha virt. eigenvalues --    0.31665   0.32002   0.34192   0.35151   0.35596
 Alpha virt. eigenvalues --    0.35811   0.37562   0.39168   0.39423   0.39878
 Alpha virt. eigenvalues --    0.39918   0.43233   0.43368   0.43753   0.45598
 Alpha virt. eigenvalues --    0.45827   0.48598   0.49184   0.50890   0.51054
 Alpha virt. eigenvalues --    0.51487   0.51556   0.52780   0.53668   0.53983
 Alpha virt. eigenvalues --    0.54315   0.54863   0.55523   0.55914   0.56787
 Alpha virt. eigenvalues --    0.57106   0.58091   0.58700   0.58810   0.58913
 Alpha virt. eigenvalues --    0.59393   0.59866   0.60843   0.61554   0.61846
 Alpha virt. eigenvalues --    0.61848   0.62432   0.62692   0.62803   0.63181
 Alpha virt. eigenvalues --    0.64101   0.64254   0.64500   0.64868   0.64898
 Alpha virt. eigenvalues --    0.65253   0.66415   0.66477   0.66747   0.66891
 Alpha virt. eigenvalues --    0.67494   0.67694   0.67880   0.68810   0.69524
 Alpha virt. eigenvalues --    0.69833   0.69948   0.70171   0.70985   0.71701
 Alpha virt. eigenvalues --    0.73209   0.73460   0.73976   0.74814   0.74995
 Alpha virt. eigenvalues --    0.75512   0.75904   0.77073   0.77511   0.78734
 Alpha virt. eigenvalues --    0.79792   0.80560   0.82029   0.82576   0.82979
 Alpha virt. eigenvalues --    0.86155   0.86699   0.87540   0.88041   0.89359
 Alpha virt. eigenvalues --    0.90394   0.92465   0.95217   0.98786   1.01857
 Alpha virt. eigenvalues --    1.03116   1.04296   1.05427   1.07613   1.10397
 Alpha virt. eigenvalues --    1.10472   1.11367   1.11563   1.15900   1.17033
 Alpha virt. eigenvalues --    1.18606   1.19725   1.23527   1.23823   1.24200
 Alpha virt. eigenvalues --    1.25309   1.25543   1.25987   1.28255   1.28332
 Alpha virt. eigenvalues --    1.33259   1.33389   1.33628   1.34604   1.34847
 Alpha virt. eigenvalues --    1.36507   1.37346   1.38434   1.40054   1.41959
 Alpha virt. eigenvalues --    1.42234   1.44794   1.45484   1.46730   1.47348
 Alpha virt. eigenvalues --    1.47832   1.48381   1.48832   1.49598   1.51238
 Alpha virt. eigenvalues --    1.51567   1.51822   1.51952   1.53357   1.53768
 Alpha virt. eigenvalues --    1.54377   1.54930   1.55517   1.56859   1.57610
 Alpha virt. eigenvalues --    1.59083   1.59221   1.59864   1.59907   1.61106
 Alpha virt. eigenvalues --    1.61121   1.61756   1.62487   1.62831   1.62878
 Alpha virt. eigenvalues --    1.63356   1.63606   1.64170   1.65531   1.65902
 Alpha virt. eigenvalues --    1.66124   1.66609   1.68037   1.69783   1.70551
 Alpha virt. eigenvalues --    1.70816   1.70985   1.72273   1.73129   1.73384
 Alpha virt. eigenvalues --    1.73440   1.73996   1.74458   1.75239   1.77957
 Alpha virt. eigenvalues --    1.78191   1.78889   1.79371   1.79845   1.81715
 Alpha virt. eigenvalues --    1.81859   1.82668   1.84021   1.84138   1.84776
 Alpha virt. eigenvalues --    1.85036   1.85309   1.86034   1.86660   1.88055
 Alpha virt. eigenvalues --    1.88638   1.90155   1.90564   1.90886   1.90975
 Alpha virt. eigenvalues --    1.92619   1.93095   1.93844   1.94750   1.95433
 Alpha virt. eigenvalues --    1.96059   1.97826   1.99230   1.99862   2.00560
 Alpha virt. eigenvalues --    2.01109   2.02657   2.02778   2.02779   2.04339
 Alpha virt. eigenvalues --    2.04965   2.05937   2.06531   2.07354   2.09413
 Alpha virt. eigenvalues --    2.11496   2.11613   2.13079   2.14357   2.15407
 Alpha virt. eigenvalues --    2.16421   2.19526   2.20791   2.22183   2.23195
 Alpha virt. eigenvalues --    2.25250   2.26212   2.28268   2.28718   2.29062
 Alpha virt. eigenvalues --    2.29468   2.31511   2.31972   2.32073   2.32468
 Alpha virt. eigenvalues --    2.33890   2.34127   2.37026   2.37735   2.39006
 Alpha virt. eigenvalues --    2.40349   2.41041   2.41383   2.43651   2.43896
 Alpha virt. eigenvalues --    2.45948   2.48821   2.49181   2.49339   2.51210
 Alpha virt. eigenvalues --    2.51355   2.51749   2.53101   2.53500   2.54027
 Alpha virt. eigenvalues --    2.55575   2.56408   2.56568   2.56682   2.57696
 Alpha virt. eigenvalues --    2.58327   2.58792   2.60191   2.61561   2.62643
 Alpha virt. eigenvalues --    2.63062   2.64249   2.64706   2.65355   2.66625
 Alpha virt. eigenvalues --    2.67741   2.67832   2.68629   2.69018   2.69658
 Alpha virt. eigenvalues --    2.70138   2.71116   2.71861   2.72366   2.73757
 Alpha virt. eigenvalues --    2.73952   2.75682   2.78403   2.78723   2.79387
 Alpha virt. eigenvalues --    2.80419   2.82901   2.83967   2.84817   2.85067
 Alpha virt. eigenvalues --    2.86690   2.87571   2.88691   2.89220   2.90135
 Alpha virt. eigenvalues --    2.92051   2.92066   2.92215   2.93378   2.93707
 Alpha virt. eigenvalues --    2.95634   2.95902   2.96173   2.98251   2.98284
 Alpha virt. eigenvalues --    3.00048   3.01262   3.02142   3.03921   3.04965
 Alpha virt. eigenvalues --    3.05578   3.05917   3.06115   3.08722   3.10881
 Alpha virt. eigenvalues --    3.12072   3.12171   3.14153   3.15007   3.16757
 Alpha virt. eigenvalues --    3.18570   3.19917   3.22135   3.22695   3.24334
 Alpha virt. eigenvalues --    3.29423   3.29530   3.30645   3.31241   3.37442
 Alpha virt. eigenvalues --    3.38452   3.38573   3.40618   3.46693   3.52016
 Alpha virt. eigenvalues --    3.52733   3.66609   3.79017   3.79986   3.82141
 Alpha virt. eigenvalues --    3.82491   3.87928   3.90186   4.03492   4.04164
 Alpha virt. eigenvalues --    4.05128   4.05835   4.09839   4.10375   4.11767
 Alpha virt. eigenvalues --    4.11982   4.14457   4.15693   4.20189   4.20438
 Alpha virt. eigenvalues --    4.24129   4.24899   4.25246   4.26012   4.29106
 Alpha virt. eigenvalues --    4.30746   4.32910   4.35449   4.38273   4.39651
 Alpha virt. eigenvalues --    4.39937   4.42803   4.47106   4.48490   4.55162
 Alpha virt. eigenvalues --    4.56588   4.59362  23.82037  23.84082  23.88271
 Alpha virt. eigenvalues --   23.93179  23.95965  23.97225  24.07074  24.09123
 Alpha virt. eigenvalues --   24.09810  24.12012  24.13131  24.15795  24.22167
 Alpha virt. eigenvalues --   24.22501  24.23893  24.23953  24.24198  24.26320
          Condensed to atoms (all electrons):
 Mulliken charges:
               1
     1  C   -0.160401
     2  C   -0.159651
     3  C   -0.177396
     4  C   -0.108387
     5  C   -0.185694
     6  C   -0.148983
     7  C   -0.270340
     8  C   -0.179974
     9  C   -0.177265
    10  H    0.114028
    11  H    0.094218
    12  H    0.095467
    13  H    0.095120
    14  H    0.093478
    15  H    0.099387
    16  H    0.102885
    17  H    0.111593
    18  H    0.111278
    19  H    0.114276
    20  H    0.112694
    21  H    0.104853
    22  H    0.105423
    23  H    0.113833
    24  H    0.099571
    25  C   -0.160417
    26  C   -0.159643
    27  C   -0.149025
    28  C   -0.270356
    29  C   -0.177381
    30  H    0.111282
    31  H    0.114269
    32  C   -0.185688
    33  H    0.114030
    34  H    0.111591
    35  C   -0.108380
    36  C   -0.179965
    37  C   -0.177203
    38  H    0.105420
    39  H    0.113831
    40  H    0.112682
    41  H    0.104857
    42  H    0.102882
    43  H    0.094216
    44  H    0.095453
    45  H    0.099567
    46  H    0.095119
    47  H    0.093470
    48  H    0.099376
 Sum of Mulliken charges =   0.00000
 Mulliken charges with hydrogens summed into heavy atoms:
               1
     1  C   -0.160401
     2  C    0.065903
     3  C    0.041861
     4  C   -0.005502
     5  C    0.031853
     6  C    0.076638
     7  C   -0.270340
     8  C    0.109281
     9  C    0.110720
    25  C   -0.160417
    26  C    0.065908
    27  C    0.076596
    28  C   -0.270356
    29  C    0.041871
    32  C    0.031851
    35  C   -0.005498
    36  C    0.109271
    37  C    0.110762
 Electronic spatial extent (au):  <R**2>=           3954.4316
 Charge=              0.0000 electrons
 Dipole moment (field-independent basis, Debye):
    X=              0.0001    Y=              0.0000    Z=              0.0001  Tot=              0.0001
 Calling FoFJK, ICntrl=      2127 FMM=F ISym2X=0 I1Cent= 0 IOpClX= 0 NMat=1 NMatS=1 NMatT=0.

 GradGradGradGradGradGradGradGradGradGradGradGradGradGradGradGradGradGrad
 FormGI is forming the generalized inverse of G from B-inverse, IUseBI=4.
 Internal  Forces:  Max     0.112396143 RMS     0.023236023
 Step number   1 out of a maximum of  288
 All quantities printed in internal units (Hartrees-Bohrs-Radians)
 Mixed Optimization -- RFO/linear search
 Second derivative matrix not updated -- first step.
 ITU=  0
     Eigenvalues ---    0.00230   0.00304   0.00305   0.00315   0.00316
     Eigenvalues ---    0.00335   0.00335   0.00670   0.00670   0.01720
     Eigenvalues ---    0.01720   0.02199   0.02199   0.02533   0.02533
     Eigenvalues ---    0.02881   0.02881   0.03540   0.03541   0.03575
     Eigenvalues ---    0.03575   0.03990   0.03990   0.04016   0.04016
     Eigenvalues ---    0.04267   0.04267   0.04399   0.04399   0.05114
     Eigenvalues ---    0.05114   0.05141   0.05141   0.05164   0.05165
     Eigenvalues ---    0.05207   0.05207   0.05221   0.05221   0.05456
     Eigenvalues ---    0.05456   0.05555   0.05556   0.05604   0.05604
     Eigenvalues ---    0.06111   0.06111   0.06339   0.06339   0.06759
     Eigenvalues ---    0.06760   0.06770   0.06770   0.07029   0.07029
     Eigenvalues ---    0.07042   0.07042   0.07440   0.07440   0.07653
     Eigenvalues ---    0.07653   0.08816   0.08816   0.08959   0.08959
     Eigenvalues ---    0.10108   0.10108   0.10525   0.10526   0.11774
     Eigenvalues ---    0.11774   0.12615   0.12616   0.16000   0.16000
     Eigenvalues ---    0.16000   0.16000   0.16000   0.16000   0.16000
     Eigenvalues ---    0.16000   0.16000   0.16000   0.16000   0.16000
     Eigenvalues ---    0.17231   0.17231   0.20358   0.20358   0.23036
     Eigenvalues ---    0.23036   0.24683   0.24686   0.25608   0.25611
     Eigenvalues ---    0.25860   0.25865   0.27443   0.27446   0.28149
     Eigenvalues ---    0.28693   0.28699   0.28854   0.28855   0.28974
     Eigenvalues ---    0.28983   0.29050   0.29058   0.43232   0.43233
     Eigenvalues ---    0.44341   0.44341   0.44709   0.44709   0.45180
     Eigenvalues ---    0.45192   0.45397   0.45413   0.46203   0.46214
     Eigenvalues ---    0.46367   0.46378   0.47730   0.47731   0.47799
     Eigenvalues ---    0.47800   0.47811   0.47823   0.48297   0.48297
     Eigenvalues ---    0.50193   0.50205   0.50651   0.50659   0.52545
     Eigenvalues ---    0.52560   0.53095   0.53095
 Linear search not attempted -- first point.
 Maximum step size (   0.300) exceeded in Quadratic search.
    -- Step size scaled by   0.511
 Iteration  1 RMS(Cart)=  0.01740305 RMS(Int)=  0.00003940
 Iteration  2 RMS(Cart)=  0.00004823 RMS(Int)=  0.00000183
 Iteration  3 RMS(Cart)=  0.00000000 RMS(Int)=  0.00000183
 Variable       Old X    -DE/DX   Delta X   Delta X   Delta X     New X
                                 (Linear)    (Quad)   (Total)
    R1        2.94573   0.00533   0.00000   0.00501   0.00501   2.95075
    R2        2.93850   0.00742   0.00000   0.00695   0.00695   2.94545
    R3        2.99499   0.00438   0.00000   0.00407   0.00407   2.99906
    R4        2.91813   0.00452   0.00000   0.00431   0.00431   2.92244
    R5        2.92415   0.00753   0.00000   0.00739   0.00739   2.93153
    R6        1.92749   0.05603   0.00000   0.04105   0.04105   1.96854
    R7        1.91753   0.06136   0.00000   0.04442   0.04442   1.96195
    R8        2.88639   0.00839   0.00000   0.00805   0.00805   2.89444
    R9        1.92315   0.05982   0.00000   0.04360   0.04360   1.96675
   R10        1.88927   0.07767   0.00000   0.05427   0.05427   1.94354
   R11        2.88359   0.00925   0.00000   0.00889   0.00889   2.89247
   R12        2.92418   0.00569   0.00000   0.00536   0.00536   2.92954
   R13        1.88324   0.08155   0.00000   0.05655   0.05655   1.93979
   R14        2.92767   0.00713   0.00000   0.00701   0.00701   2.93468
   R15        1.91499   0.06384   0.00000   0.04607   0.04607   1.96106
   R16        1.94085   0.05112   0.00000   0.03806   0.03806   1.97891
   R17        1.88853   0.07700   0.00000   0.05375   0.05375   1.94228
   R18        1.88829   0.07688   0.00000   0.05366   0.05366   1.94194
   R19        2.90039   0.00559   0.00000   0.00525   0.00525   2.90564
   R20        2.89898   0.00627   0.00000   0.00588   0.00588   2.90486
   R21        1.84081   0.10672   0.00000   0.06997   0.06997   1.91078
   R22        1.90408   0.06999   0.00000   0.04983   0.04983   1.95390
   R23        1.86371   0.09467   0.00000   0.06400   0.06400   1.92771
   R24        1.90603   0.06868   0.00000   0.04902   0.04902   1.95504
   R25        1.85914   0.09480   0.00000   0.06370   0.06370   1.92284
   R26        1.83565   0.11239   0.00000   0.07317   0.07317   1.90882
   R27        2.94559   0.00536   0.00000   0.00504   0.00504   2.95063
   R28        2.93877   0.00739   0.00000   0.00691   0.00691   2.94568
   R29        2.99506   0.00438   0.00000   0.00407   0.00406   2.99912
   R30        2.92415   0.00753   0.00000   0.00739   0.00739   2.93153
   R31        1.92749   0.05603   0.00000   0.04105   0.04105   1.96854
   R32        1.91767   0.06129   0.00000   0.04437   0.04437   1.96204
   R33        2.92742   0.00717   0.00000   0.00705   0.00705   2.93448
   R34        1.88854   0.07699   0.00000   0.05375   0.05375   1.94228
   R35        1.88841   0.07681   0.00000   0.05361   0.05361   1.94203
   R36        2.92416   0.00569   0.00000   0.00536   0.00536   2.92953
   R37        2.90056   0.00556   0.00000   0.00523   0.00523   2.90579
   R38        2.89881   0.00630   0.00000   0.00592   0.00592   2.90473
   R39        2.88622   0.00843   0.00000   0.00809   0.00809   2.89431
   R40        1.92315   0.05982   0.00000   0.04360   0.04360   1.96675
   R41        1.88927   0.07767   0.00000   0.05427   0.05427   1.94355
   R42        2.88359   0.00925   0.00000   0.00888   0.00888   2.89247
   R43        1.91517   0.06375   0.00000   0.04601   0.04601   1.96119
   R44        1.94083   0.05113   0.00000   0.03807   0.03807   1.97890
   R45        1.88324   0.08155   0.00000   0.05655   0.05655   1.93979
   R46        1.84067   0.10681   0.00000   0.07001   0.07001   1.91068
   R47        1.90420   0.06993   0.00000   0.04979   0.04979   1.95399
   R48        1.86359   0.09474   0.00000   0.06403   0.06403   1.92762
   R49        1.90591   0.06874   0.00000   0.04905   0.04905   1.95496
   R50        1.85906   0.09485   0.00000   0.06372   0.06372   1.92279
   R51        1.83565   0.11240   0.00000   0.07317   0.07317   1.90882
    A1        1.81499   0.00107   0.00000   0.00141   0.00141   1.81640
    A2        1.75376   0.00033   0.00000   0.00043   0.00043   1.75419
    A3        2.00440  -0.00046   0.00000  -0.00060  -0.00060   2.00380
    A4        1.75417   0.00085   0.00000   0.00110   0.00110   1.75527
    A5        2.00738  -0.00106   0.00000  -0.00133  -0.00133   2.00605
    A6        2.08727  -0.00030   0.00000  -0.00046  -0.00046   2.08682
    A7        1.82792   0.00025   0.00000  -0.00003  -0.00004   1.82789
    A8        1.93303  -0.00116   0.00000  -0.00145  -0.00145   1.93158
    A9        1.95612   0.00061   0.00000   0.00079   0.00079   1.95692
   A10        1.93685   0.00057   0.00000   0.00081   0.00081   1.93765
   A11        1.95575  -0.00148   0.00000  -0.00201  -0.00201   1.95374
   A12        1.85613   0.00114   0.00000   0.00181   0.00181   1.85794
   A13        1.79616  -0.00097   0.00000  -0.00076  -0.00076   1.79540
   A14        1.93942   0.00143   0.00000   0.00183   0.00182   1.94124
   A15        1.95655  -0.00101   0.00000  -0.00168  -0.00168   1.95487
   A16        1.96647  -0.00134   0.00000  -0.00225  -0.00225   1.96422
   A17        1.93361   0.00131   0.00000   0.00168   0.00168   1.93530
   A18        1.87308   0.00052   0.00000   0.00106   0.00106   1.87414
   A19        1.87912   0.00042   0.00000   0.00054   0.00054   1.87966
   A20        1.79829  -0.00042   0.00000  -0.00061  -0.00061   1.79768
   A21        1.99817  -0.00046   0.00000  -0.00066  -0.00066   1.99752
   A22        1.79817  -0.00082   0.00000  -0.00106  -0.00106   1.79711
   A23        1.98129   0.00078   0.00000   0.00123   0.00124   1.98253
   A24        1.98899   0.00036   0.00000   0.00037   0.00037   1.98937
   A25        1.79188   0.00015   0.00000   0.00052   0.00052   1.79240
   A26        1.94059   0.00024   0.00000   0.00026   0.00026   1.94085
   A27        1.96246  -0.00080   0.00000  -0.00132  -0.00132   1.96113
   A28        1.94132  -0.00051   0.00000  -0.00076  -0.00076   1.94057
   A29        1.96332  -0.00008   0.00000  -0.00036  -0.00036   1.96297
   A30        1.86597   0.00093   0.00000   0.00155   0.00155   1.86751
   A31        1.83166  -0.00098   0.00000  -0.00142  -0.00142   1.83025
   A32        1.95552   0.00039   0.00000   0.00046   0.00045   1.95597
   A33        1.92705  -0.00010   0.00000  -0.00016  -0.00016   1.92690
   A34        1.94094  -0.00052   0.00000  -0.00076  -0.00076   1.94018
   A35        1.94490   0.00048   0.00000   0.00054   0.00054   1.94543
   A36        1.86540   0.00072   0.00000   0.00131   0.00131   1.86671
   A37        1.63542   0.00069   0.00000   0.00066   0.00066   1.63608
   A38        2.03184  -0.00058   0.00000  -0.00074  -0.00074   2.03110
   A39        2.03247  -0.00025   0.00000  -0.00024  -0.00023   2.03224
   A40        1.94006  -0.00010   0.00000   0.00010   0.00010   1.94017
   A41        1.94450  -0.00031   0.00000  -0.00029  -0.00029   1.94421
   A42        1.87071   0.00051   0.00000   0.00050   0.00049   1.87120
   A43        1.98969  -0.00364   0.00000  -0.00437  -0.00437   1.98531
[...]
    42  H    2.702726   0.000000
    43  H    4.901211   3.288484   0.000000
    44  H    5.540760   3.839672   1.758689   0.000000
    45  H    4.937316   2.610246   1.761485   1.757490   0.000000
    46  H    5.018448   3.839509   3.654464   2.352750   3.023039
    47  H    3.714508   3.288956   4.361793   3.654485   3.784649
    48  H    4.282758   2.609996   3.784798   3.023949   2.572632
                   46         47         48
    46  H    0.000000
    47  H    1.758683   0.000000
    48  H    1.757483   1.761493   0.000000
 Framework group  C1[X(C18H30)]
 Deg. of freedom   138
                         Standard orientation:                         
 ---------------------------------------------------------------------
 Center     Atomic      Atomic             Coordinates (Angstroms)
 Number     Number       Type             X           Y           Z
 ---------------------------------------------------------------------
      1          6           0       -0.742400    0.239173    0.000053
      2          6           0       -1.150314    1.110888    1.234426
      3          6           0       -2.707866    1.090755    1.240277
      4          6           0       -3.043843    0.243904    0.000025
      5          6           0       -2.707900    1.090500   -1.240382
      6          6           0       -1.150357    1.110805   -1.234392
      7          6           0       -1.925093   -0.840310    0.000066
      8          6           0       -2.026966   -1.753958    1.237268
      9          6           0       -2.026909   -1.753927   -1.237170
     10          1           0       -0.751493    0.714707   -2.168598
     11          1           0       -1.846557   -1.240180    2.180981
     12          1           0       -1.323438   -2.585725    1.176569
     13          1           0       -1.323786   -2.586024   -1.176176
     14          1           0       -1.845852   -1.240245   -2.180812
     15          1           0       -3.031829   -2.187065   -1.286469
     16          1           0       -4.058962   -0.161759    0.000075
     17          1           0       -0.764658    2.125355   -1.135497
     18          1           0       -0.764458    2.125369    1.135591
     19          1           0       -0.751636    0.714693    2.168671
     20          1           0       -3.098211    0.638049   -2.154696
     21          1           0       -3.138483    2.092826   -1.172225
     22          1           0       -3.138322    2.093119    1.171825
     23          1           0       -3.098333    0.638595    2.154670
     24          1           0       -3.031716   -2.187557    1.286163
     25          6           0        0.742413   -0.239215    0.000019
     26          6           0        1.150303   -1.110964   -1.234339
     27          6           0        1.150453   -1.110776    1.234488
     28          6           0        1.925067    0.840303   -0.000105
     29          6           0        2.707854   -1.090791   -1.240253
     30          1           0        0.764476   -2.125451   -1.135454
     31          1           0        0.751579   -0.714810   -2.168583
     32          6           0        2.707996   -1.090414    1.240407
     33          1           0        0.751615   -0.714654    2.168694
     34          1           0        0.764793   -2.125345    1.135652
     35          6           0        3.043857   -0.243868   -0.000057
     36          6           0        2.026818    1.753883   -1.237365
     37          6           0        2.026907    1.753997    1.237073
     38          1           0        3.138341   -2.093140   -1.171769
     39          1           0        3.098272   -0.638665   -2.154684
     40          1           0        3.098331   -0.637903    2.154681
     41          1           0        3.138612   -2.092728    1.172282
     42          1           0        4.058961    0.161831   -0.000172
     43          1           0        1.846400    1.240034   -2.181038
     44          1           0        1.323227    2.585600   -1.176684
     45          1           0        3.031533    2.187555   -1.286335
     46          1           0        1.323746    2.586061    1.176066
     47          1           0        1.845919    1.240364    2.180755
     48          1           0        3.031811    2.187180    1.286296
 ---------------------------------------------------------------------
 Rotational constants (GHZ):      0.7475864      0.3579931      0.3398356

 **********************************************************************

            Population analysis using the SCF density.

 **********************************************************************

 Orbital symmetries:
       Occupied  (A) (A) (A) (A) (A) (A) (A) (A) (A) (A) (A) (A)
                 (A) (A) (A) (A) (A) (A) (A) (A) (A) (A) (A) (A)
                 (A) (A) (A) (A) (A) (A) (A) (A) (A) (A) (A) (A)
                 (A) (A) (A) (A) (A) (A) (A) (A) (A) (A) (A) (A)
                 (A) (A) (A) (A) (A) (A) (A) (A) (A) (A) (A) (A)
                 (A) (A) (A) (A) (A) (A) (A) (A) (A)
       Virtual   (A) (A) (A) (A) (A) (A) (A) (A) (A) (A) (A) (A)
                 (A) (A) (A) (A) (A) (A) (A) (A) (A) (A) (A) (A)
                 (A) (A) (A) (A) (A) (A) (A) (A) (A) (A) (A) (A)
                 (A) (A) (A) (A) (A) (A) (A) (A) (A) (A) (A) (A)
                 (A) (A) (A) (A) (A) (A) (A) (A) (A) (A) (A) (A)
                 (A) (A) (A) (A) (A) (A) (A) (A) (A) (A) (A) (A)
                 (A) (A) (A) (A) (A) (A) (A) (A) (A) (A) (A) (A)
                 (A) (A) (A) (A) (A) (A) (A) (A) (A) (A) (A) (A)
                 (A) (A) (A) (A) (A) (A) (A) (A) (A) (A) (A) (A)
                 (A) (A) (A) (A) (A) (A) (A) (A) (A) (A) (A) (A)
                 (A) (A) (A) (A) (A) (A) (A) (A) (A) (A) (A) (A)
                 (A) (A) (A) (A) (A) (A) (A) (A) (A) (A) (A) (A)
                 (A) (A) (A) (A) (A) (A) (A) (A) (A) (A) (A) (A)
                 (A) (A) (A) (A) (A) (A) (A) (A) (A) (A) (A) (A)
                 (A) (A) (A) (A) (A) (A) (A) (A) (A) (A) (A) (A)
                 (A) (A) (A) (A) (A) (A) (A) (A) (A) (A) (A) (A)
                 (A) (A) (A) (A) (A) (A) (A) (A) (A) (A) (A) (A)
                 (A) (A) (A) (A) (A) (A) (A) (A) (A) (A) (A) (A)
                 (A) (A) (A) (A) (A) (A) (A) (A) (A) (A) (A) (A)
                 (A) (A) (A) (A) (A) (A) (A) (A) (A) (A) (A) (A)
                 (A) (A) (A) (A) (A) (A) (A) (A) (A) (A) (A) (A)
                 (A) (A) (A) (A) (A) (A) (A) (A) (A) (A) (A) (A)
                 (A) (A) (A) (A) (A) (A) (A) (A) (A) (A) (A) (A)
                 (A) (A) (A) (A) (A) (A) (A) (A) (A) (A) (A) (A)
                 (A) (A) (A) (A) (A) (A) (A) (A) (A) (A) (A) (A)
                 (A) (A) (A) (A) (A) (A) (A) (A) (A) (A) (A) (A)
                 (A) (A) (A) (A) (A) (A) (A) (A) (A) (A) (A) (A)
                 (A) (A) (A) (A) (A) (A) (A) (A) (A) (A) (A) (A)
                 (A) (A) (A) (A) (A) (A) (A) (A) (A) (A) (A) (A)
                 (A) (A) (A) (A) (A) (A) (A) (A) (A) (A) (A) (A)
                 (A) (A) (A) (A) (A) (A) (A) (A) (A) (A) (A) (A)
                 (A) (A) (A) (A) (A) (A) (A) (A) (A) (A) (A) (A)
                 (A) (A) (A) (A) (A) (A) (A) (A) (A) (A) (A) (A)
                 (A) (A) (A) (A) (A) (A) (A) (A) (A) (A) (A) (A)
                 (A) (A) (A) (A) (A) (A) (A) (A) (A) (A) (A) (A)
                 (A) (A) (A) (A) (A) (A) (A) (A) (A) (A) (A) (A)
                 (A) (A) (A)
 The electronic state is 1-A.
 Alpha  occ. eigenvalues --  -10.17904 -10.17885 -10.17744 -10.17744 -10.16225
 Alpha  occ. eigenvalues --  -10.16225 -10.15655 -10.15654 -10.15653 -10.15653
 Alpha  occ. eigenvalues --  -10.15633 -10.15632 -10.15630 -10.15630 -10.15189
 Alpha  occ. eigenvalues --  -10.15189 -10.15188 -10.15188  -0.87991  -0.86180
 Alpha  occ. eigenvalues --   -0.76287  -0.75618  -0.74532  -0.74348  -0.73379
 Alpha  occ. eigenvalues --   -0.69231  -0.67755  -0.67333  -0.64033  -0.62573
 Alpha  occ. eigenvalues --   -0.60785  -0.58861  -0.54402  -0.53870  -0.52034
 Alpha  occ. eigenvalues --   -0.50309  -0.49500  -0.47702  -0.47186  -0.46267
 Alpha  occ. eigenvalues --   -0.44933  -0.43020  -0.42824  -0.42015  -0.40324
 Alpha  occ. eigenvalues --   -0.40183  -0.39713  -0.39064  -0.38757  -0.38727
 Alpha  occ. eigenvalues --   -0.38234  -0.37234  -0.36892  -0.36295  -0.36147
 Alpha  occ. eigenvalues --   -0.34782  -0.33937  -0.32992  -0.32828  -0.32639
 Alpha  occ. eigenvalues --   -0.31716  -0.31440  -0.31433  -0.30925  -0.29985
 Alpha  occ. eigenvalues --   -0.29954  -0.29850  -0.27411  -0.26392
 Alpha virt. eigenvalues --    0.02921   0.04650   0.05021   0.05038   0.06234
 Alpha virt. eigenvalues --    0.06941   0.08074   0.08256   0.08820   0.09359
 Alpha virt. eigenvalues --    0.09497   0.09926   0.10399   0.11356   0.11490
 Alpha virt. eigenvalues --    0.12995   0.13016   0.13046   0.13671   0.14187
 Alpha virt. eigenvalues --    0.14887   0.14902   0.15421   0.16575   0.16631
 Alpha virt. eigenvalues --    0.16998   0.17940   0.18230   0.18534   0.19285
 Alpha virt. eigenvalues --    0.19681   0.20199   0.20478   0.21149   0.21868
 Alpha virt. eigenvalues --    0.21983   0.22334   0.22978   0.23793   0.23921
 Alpha virt. eigenvalues --    0.24635   0.24999   0.26071   0.26307   0.26879
 Alpha virt. eigenvalues --    0.27506   0.27520   0.28349   0.29434   0.30110
 Alpha virt. eigenvalues --    0.30497   0.30628   0.32484   0.33622   0.34049
 Alpha virt. eigenvalues --    0.34075   0.36432   0.36895   0.36933   0.37995
 Alpha virt. eigenvalues --    0.38349   0.40395   0.41299   0.42010   0.42817
 Alpha virt. eigenvalues --    0.43295   0.45248   0.46445   0.47477   0.47756
 Alpha virt. eigenvalues --    0.48012   0.48317   0.48570   0.49425   0.50579
 Alpha virt. eigenvalues --    0.50607   0.51046   0.51311   0.51737   0.52861
 Alpha virt. eigenvalues --    0.52983   0.54809   0.55147   0.56149   0.56256
 Alpha virt. eigenvalues --    0.56685   0.56816   0.57381   0.57607   0.58037
 Alpha virt. eigenvalues --    0.58057   0.58532   0.58792   0.60169   0.60329
 Alpha virt. eigenvalues --    0.60331   0.60401   0.60440   0.61423   0.61789
 Alpha virt. eigenvalues --    0.62120   0.62197   0.62543   0.63530   0.63718
 Alpha virt. eigenvalues --    0.64518   0.64732   0.64983   0.65432   0.65735
 Alpha virt. eigenvalues --    0.66018   0.66335   0.67894   0.68340   0.68419
 Alpha virt. eigenvalues --    0.69718   0.69794   0.70752   0.71036   0.72787
 Alpha virt. eigenvalues --    0.73081   0.74107   0.74883   0.75358   0.76818
 Alpha virt. eigenvalues --    0.78181   0.78860   0.80695   0.80705   0.81951
 Alpha virt. eigenvalues --    0.85523   0.85597   0.85992   0.86195   0.88843
 Alpha virt. eigenvalues --    0.90444   0.90639   0.94869   0.98758   1.01115
 Alpha virt. eigenvalues --    1.01837   1.02287   1.03413   1.07498   1.08746
 Alpha virt. eigenvalues --    1.08900   1.10656   1.11155   1.14782   1.15868
 Alpha virt. eigenvalues --    1.17534   1.18138   1.21959   1.21961   1.22114
 Alpha virt. eigenvalues --    1.23612   1.23855   1.24187   1.25935   1.26895
 Alpha virt. eigenvalues --    1.30557   1.31217   1.31858   1.33513   1.33783
 Alpha virt. eigenvalues --    1.34692   1.35792   1.36591   1.36645   1.40011
 Alpha virt. eigenvalues --    1.40304   1.42783   1.43224   1.43747   1.45039
 Alpha virt. eigenvalues --    1.45616   1.46228   1.46642   1.46813   1.46995
 Alpha virt. eigenvalues --    1.48649   1.49292   1.49610   1.49706   1.50785
 Alpha virt. eigenvalues --    1.51283   1.51387   1.52447   1.54336   1.55030
 Alpha virt. eigenvalues --    1.55134   1.55253   1.56849   1.57000   1.57140
 Alpha virt. eigenvalues --    1.58830   1.59339   1.60107   1.60344   1.60508
 Alpha virt. eigenvalues --    1.60638   1.60758   1.61339   1.63174   1.63521
 Alpha virt. eigenvalues --    1.63956   1.63970   1.65263   1.65419   1.65846
 Alpha virt. eigenvalues --    1.66488   1.67891   1.68038   1.69539   1.69957
 Alpha virt. eigenvalues --    1.70015   1.70438   1.71974   1.72011   1.73219
 Alpha virt. eigenvalues --    1.73882   1.73909   1.74056   1.74981   1.76403
 Alpha virt. eigenvalues --    1.76772   1.76993   1.78917   1.79699   1.80227
 Alpha virt. eigenvalues --    1.80251   1.81034   1.81198   1.82266   1.83957
 Alpha virt. eigenvalues --    1.84382   1.85260   1.85295   1.85851   1.86762
 Alpha virt. eigenvalues --    1.87166   1.88131   1.88991   1.89548   1.90276
 Alpha virt. eigenvalues --    1.90663   1.91392   1.93219   1.95171   1.95441
 Alpha virt. eigenvalues --    1.95586   1.96348   1.97337   1.98450   1.99000
 Alpha virt. eigenvalues --    1.99056   2.00265   2.00851   2.02082   2.04247
 Alpha virt. eigenvalues --    2.06161   2.06621   2.07171   2.08166   2.08209
 Alpha virt. eigenvalues --    2.12282   2.13252   2.14295   2.15164   2.16308
 Alpha virt. eigenvalues --    2.16591   2.17383   2.17699   2.18453   2.18699
 Alpha virt. eigenvalues --    2.20827   2.22412   2.22535   2.23395   2.25293
 Alpha virt. eigenvalues --    2.25842   2.26583   2.29206   2.30034   2.30955
 Alpha virt. eigenvalues --    2.31341   2.33450   2.33487   2.33629   2.34928
 Alpha virt. eigenvalues --    2.37904   2.37906   2.40364   2.40886   2.41348
 Alpha virt. eigenvalues --    2.41645   2.41764   2.41850   2.42320   2.44393
 Alpha virt. eigenvalues --    2.44903   2.46648   2.46654   2.46936   2.47226
 Alpha virt. eigenvalues --    2.47981   2.49070   2.49267   2.50321   2.52036
 Alpha virt. eigenvalues --    2.52958   2.53293   2.53564   2.54496   2.54737
 Alpha virt. eigenvalues --    2.56232   2.56636   2.57902   2.58171   2.58464
 Alpha virt. eigenvalues --    2.59418   2.60124   2.63673   2.63974   2.65220
 Alpha virt. eigenvalues --    2.66610   2.68305   2.69576   2.69622   2.69878
 Alpha virt. eigenvalues --    2.70768   2.72381   2.73361   2.73798   2.73868
 Alpha virt. eigenvalues --    2.74918   2.77721   2.79451   2.80488   2.81445
 Alpha virt. eigenvalues --    2.81829   2.82046   2.82346   2.84886   2.86727
 Alpha virt. eigenvalues --    2.88075   2.90046   2.92546   2.92981   2.94278
 Alpha virt. eigenvalues --    2.94964   2.95226   2.96025   2.97654   2.99541
 Alpha virt. eigenvalues --    2.99940   3.01463   3.03297   3.04362   3.04832
 Alpha virt. eigenvalues --    3.07466   3.09936   3.10881   3.11860   3.13821
 Alpha virt. eigenvalues --    3.14888   3.15526   3.18989   3.19850   3.22163
 Alpha virt. eigenvalues --    3.23296   3.24872   3.25923   3.28651   3.32054
 Alpha virt. eigenvalues --    3.33492   3.34534   3.34951   3.40219   3.44152
 Alpha virt. eigenvalues --    3.47132   3.59245   3.63518   3.64016   3.65756
 Alpha virt. eigenvalues --    3.67200   3.78614   3.80256   3.80543   3.80554
 Alpha virt. eigenvalues --    3.81723   3.82308   3.82362   3.83674   3.83842
 Alpha virt. eigenvalues --    3.83957   3.96451   3.96528   3.98545   3.99206
 Alpha virt. eigenvalues --    4.06349   4.07960   4.13135   4.13656   4.18385
 Alpha virt. eigenvalues --    4.18539   4.21373   4.24622   4.25558   4.26488
 Alpha virt. eigenvalues --    4.30606   4.30695   4.35687   4.36634   4.41156
 Alpha virt. eigenvalues --    4.42881   4.50580  23.76131  23.79943  23.81611
 Alpha virt. eigenvalues --   23.83762  23.84528  23.86834  23.88563  23.90041
 Alpha virt. eigenvalues --   23.92839  23.95183  23.96852  23.97496  23.97908
 Alpha virt. eigenvalues --   23.98899  24.01646  24.02657  24.06673  24.08149
          Condensed to atoms (all electrons):
 Mulliken charges:
               1
     1  C   -0.146607
     2  C   -0.158549
     3  C   -0.181353
     4  C   -0.102701
     5  C   -0.181352
     6  C   -0.158576
     7  C   -0.234055
     8  C   -0.213178
     9  C   -0.213200
    10  H    0.111605
    11  H    0.101814
    12  H    0.101663
    13  H    0.101660
    14  H    0.101828
    15  H    0.102953
    16  H    0.095360
    17  H    0.111261
    18  H    0.111264
    19  H    0.111601
    20  H    0.112152
    21  H    0.105659
    22  H    0.105659
    23  H    0.112148
    24  H    0.102948
    25  C   -0.146621
    26  C   -0.158554
    27  C   -0.158564
    28  C   -0.234059
    29  C   -0.181351
    30  H    0.111264
    31  H    0.111602
    32  C   -0.181358
    33  H    0.111604
    34  H    0.111262
    35  C   -0.102697
    36  C   -0.213179
    37  C   -0.213195
    38  H    0.105659
    39  H    0.112149
    40  H    0.112153
    41  H    0.105659
    42  H    0.095360
    43  H    0.101813
    44  H    0.101662
    45  H    0.102948
    46  H    0.101658
    47  H    0.101828
    48  H    0.102953
 Sum of Mulliken charges =   0.00000
 Mulliken charges with hydrogens summed into heavy atoms:
               1
     1  C   -0.146607
     2  C    0.064316
     3  C    0.036454
     4  C   -0.007341
     5  C    0.036460
     6  C    0.064290
     7  C   -0.234055
     8  C    0.093246
     9  C    0.093241
    25  C   -0.146621
    26  C    0.064312
    27  C    0.064302
    28  C   -0.234059
    29  C    0.036457
    32  C    0.036454
    35  C   -0.007337
    36  C    0.093244
    37  C    0.093244
 Electronic spatial extent (au):  <R**2>=           4060.6986
 Charge=              0.0000 electrons
 Dipole moment (field-independent basis, Debye):
    X=              0.0000    Y=              0.0000    Z=              0.0000  Tot=              0.0000
 1\1\GINC-NODE47-016\FOpt\RB3LYP\6-311G(d,p)\C18H30\CD14937\01-Apr-2017
 \0\\#T opt b3lyp/6-311g(d,p) MaxDisk=50GB\\HC064 OPT BAPOCM10 20\\0,1\
 C,2.98350396,2.9377516545,2.7080776618\C,2.3271638801,2.17853947,3.909
 2324078\C,2.280229358,0.6873484441,3.4613989452\C,2.878716415,0.736542
 5734,2.0444808585\C,1.8413375656,1.4111332918,1.1296232854\C,1.8901984
 02,2.8988585955,1.5886148877\C,3.9934447642,1.8176088263,2.1701694785\
 C,5.1063683415,1.3685100697,3.1373873126\C,4.6683006451,2.0905633962,0
 .8115371915\H,2.1316346926,3.5569746301,0.7535588294\H,4.7761110606,1.
 2604516148,4.1700360501\H,5.9440627863,2.067589895,3.1320541324\H,5.52
 78439846,2.7537521704,0.9204143261\H,4.0040544945,2.5338253509,0.07031
 78579\H,5.0417318956,1.1482359045,0.396241188\H,3.2334245514,-0.230219
 4501,1.6776273124\H,0.9269368537,3.2285366268,1.9775806917\H,1.3289734
 114,2.5660621496,4.1123726077\H,2.8994522491,2.2912956882,4.8303737573
 \H,2.107368282,1.3092304788,0.0751719911\H,0.8491385508,0.9691878689,1
 .2518093229\H,1.2638148332,0.2853838969,3.4552217571\H,2.8696960679,0.
 0517064401,4.1258663552\H,5.4976429519,0.397697934,2.8143551145\C,3.51
 84714771,4.3627669024,3.0496434341\C,4.1748468091,5.1219520749,1.84849
 07915\C,4.6117150273,4.4017315125,4.1691657358\C,2.5084749431,5.482904
 3555,3.5874431412\C,4.2217305696,6.6131606058,2.2962714696\H,5.1730533
 55,4.7344430487,1.6454045635\H,3.6025976968,5.009152177,0.9273299738\C
 ,4.6605077194,5.8894770172,4.6281016898\H,4.3702567943,3.7436393944,5.
 0042339104\H,5.5750080719,4.0720740546,3.7802633287\C,3.6231645882,6.5
 640063848,3.7131567477\C,1.3956021605,5.9319043045,2.6201222758\C,1.83
 35345765,5.2099887942,4.9460415271\H,5.2381370491,7.0151446365,2.30249
 02911\H,3.6322880157,7.2487665278,1.6317482136\H,4.3944122555,5.991413
 9312,5.6825333412\H,5.6527021815,6.3314442668,4.5059574943\H,3.2684084
 976,7.5307729226,4.0799519644\H,1.7259375154,6.0399433355,1.5874961875
 \H,0.5579519243,5.232770033,2.6254117585\H,1.004241328,6.9027038964,2.
 9430873431\H,0.974019651,4.5467679533,4.8371348923\H,2.4977431077,4.76
 6781258,5.6873270412\H,1.4600446882,6.1523230919,5.3612695607\\Version
 =ES64L-G09RevD.01\State=1-A\HF=-704.1416596\RMSD=4.629e-09\RMSF=1.285e
 -05\Dipole=0.,0.0000029,0.000001\Quadrupole=0.231315,-0.2393997,0.0080
 847,-0.186605,-0.1012579,-0.039732\PG=C01 [X(C18H30)]\\@


 ABALONE: AN EXPRESSION OF DISBELIEF.
 Job cpu time:       0 days  3 hours 15 minutes 44.9 seconds.
 File lengths (MBytes):  RWF=    159 Int=      0 D2E=      0 Chk=     19 Scr=      1
 Normal termination of Gaussian 09 at Sat Apr  1 19:27:55 2017.
