 Entering Gaussian System, Link 0=g09
 Input=HC064_BAPOCM10_OPT_NMR_20.com
 Output=HC064_BAPOCM10_OPT_NMR_20.log
 Initial command:
 /cm/shared/apps/Gaussian09/g09/l1.exe "/local/Gau-6954.inp" -scrdir="/local/"
 Entering Link 1 = /cm/shared/apps/Gaussian09/g09/l1.exe PID=      6955.
  
 Copyright (c) 1988,1990,1992,1993,1995,1998,2003,2009,2013,
            Gaussian, Inc.  All Rights Reserved.
  
 This is part of the Gaussian(R) 09 program.  It is based on
 the Gaussian(R) 03 system (copyright 2003, Gaussian, Inc.),
 the Gaussian(R) 98 system (copyright 1998, Gaussian, Inc.),
 the Gaussian(R) 94 system (copyright 1995, Gaussian, Inc.),
 the Gaussian 92(TM) system (copyright 1992, Gaussian, Inc.),
 the Gaussian 90(TM) system (copyright 1990, Gaussian, Inc.),
 the Gaussian 88(TM) system (copyright 1988, Gaussian, Inc.),
 the Gaussian 86(TM) system (copyright 1986, Carnegie Mellon
 University), and the Gaussian 82(TM) system (copyright 1983,
 Carnegie Mellon University). Gaussian is a federally registered
 trademark of Gaussian, Inc.
  
 This software contains proprietary and confidential information,
 including trade secrets, belonging to Gaussian, Inc.
  
 This software is provided under written license and may be
 used, copied, transmitted, or stored only in accord with that
 written license.
  
 The following legend is applicable only to US Government
 contracts under FAR:
  
                    RESTRICTED RIGHTS LEGEND
  
 Use, reproduction and disclosure by the US Government is
 subject to restrictions as set forth in subparagraphs (a)
 and (c) of the Commercial Computer Software - Restricted
 Rights clause in FAR 52.227-19.
  
 Gaussian, Inc.
 340 Quinnipiac St., Bldg. 40, Wallingford CT 06492
  
  
 ---------------------------------------------------------------
 Warning -- This program may not be used in any manner that
 competes with the business of Gaussian, Inc. or will provide
 assistance to any competitor of Gaussian, Inc.  The licensee
 of this program is prohibited from giving any competitor of
 Gaussian, Inc. access to this program.  By using this program,
 the user acknowledges that Gaussian, Inc. is engaged in the
 business of creating and licensing software in the field of
 computational chemistry and represents and warrants to the
 licensee that it is not a competitor of Gaussian, Inc. and that
 it will not use this program in any manner prohibited above.
 ---------------------------------------------------------------
  

 Cite this work as:
 Gaussian 09, Revision D.01,
 M. J. Frisch, G. W. Trucks, H. B. Schlegel, G. E. Scuseria, 
 M. A. Robb, J. R. Cheeseman, G. Scalmani, V. Barone, B. Mennucci, 
 G. A. Petersson, H. Nakatsuji, M. Caricato, X. Li, H. P. Hratchian, 
 A. F. Izmaylov, J. Bloino, G. Zheng, J. L. Sonnenberg, M. Hada, 
 M. Ehara, K. Toyota, R. Fukuda, J. Hasegawa, M. Ishida, T. Nakajima, 
 Y. Honda, O. Kitao, H. Nakai, T. Vreven, J. A. Montgomery, Jr., 
 J. E. Peralta, F. Ogliaro, M. Bearpark, J. J. Heyd, E. Brothers, 
 K. N. Kudin, V. N. Staroverov, T. Keith, R. Kobayashi, J. Normand, 
 K. Raghavachari, A. Rendell, J. C. Burant, S. S. Iyengar, J. Tomasi, 
 M. Cossi, N. Rega, J. M. Millam, M. Klene, J. E. Knox, J. B. Cross, 
 V. Bakken, C. Adamo, J. Jaramillo, R. Gomperts, R. E. Stratmann, 
 O. Yazyev, A. J. Austin, R. Cammi, C. Pomelli, J. W. Ochterski, 
 R. L. Martin, K. Morokuma, V. G. Zakrzewski, G. A. Voth, 
 P. Salvador, J. J. Dannenberg, S. Dapprich, A. D. Daniels, 
 O. Farkas, J. B. Foresman, J. V. Ortiz, J. Cioslowski, 
 and D. J. Fox, Gaussian, Inc., Wallingford CT, 2013.
 
 ******************************************
 Gaussian 09:  ES64L-G09RevD.01 24-Apr-2013
                 8-Apr-2017 
 ******************************************
 %oldchk=HC064_BAPOCM10_OPT_20.chk
 %chk=HC064_BAPOCM10_OPT_NMR_20.chk
 %mem=11800MB
 %NProcShared=4
 Will use up to    4 processors via shared memory.
 Copying data from "HC064_BAPOCM10_OPT_20.chk" to current chk file "HC064_BAPOCM10_OPT_NMR_20.chk".
 ---------------------------------------------------
 #T opt mpw1pw91/6-311g(d,p) geom=check MaxDisk=50GB
 ---------------------------------------------------
 ----------------------
 HC064 OPTB BAPOCM10 20
 ----------------------
 Structure from the checkpoint file:  "HC064_BAPOCM10_OPT_NMR_20.chk"
 Charge =  0 Multiplicity = 1
 Redundant internal coordinates found in file.
 C,0,2.98350396,2.9377516545,2.7080776618
 C,0,2.3271638801,2.17853947,3.9092324078
 C,0,2.280229358,0.6873484441,3.4613989452
 C,0,2.878716415,0.7365425734,2.0444808585
 C,0,1.8413375656,1.4111332918,1.1296232854
 C,0,1.890198402,2.8988585955,1.5886148877
 C,0,3.9934447642,1.8176088263,2.1701694785
 C,0,5.1063683415,1.3685100697,3.1373873126
 C,0,4.6683006451,2.0905633962,0.8115371915
 H,0,2.1316346926,3.5569746301,0.7535588294
 H,0,4.7761110606,1.2604516148,4.1700360501
 H,0,5.9440627863,2.067589895,3.1320541324
 H,0,5.5278439846,2.7537521704,0.9204143261
 H,0,4.0040544945,2.5338253509,0.0703178579
 H,0,5.0417318956,1.1482359045,0.396241188
 H,0,3.2334245514,-0.2302194501,1.6776273124
 H,0,0.9269368537,3.2285366268,1.9775806917
 H,0,1.3289734114,2.5660621496,4.1123726077
 H,0,2.8994522491,2.2912956882,4.8303737573
 H,0,2.107368282,1.3092304788,0.0751719911
 H,0,0.8491385508,0.9691878689,1.2518093229
 H,0,1.2638148332,0.2853838969,3.4552217571
 H,0,2.8696960679,0.0517064401,4.1258663552
 H,0,5.4976429519,0.397697934,2.8143551145
 C,0,3.5184714771,4.3627669024,3.0496434341
 C,0,4.1748468091,5.1219520749,1.8484907915
 C,0,4.6117150273,4.4017315125,4.1691657358
 C,0,2.5084749431,5.4829043555,3.5874431412
 C,0,4.2217305696,6.6131606058,2.2962714696
 H,0,5.173053355,4.7344430487,1.6454045635
 H,0,3.6025976968,5.009152177,0.9273299738
 C,0,4.6605077194,5.8894770172,4.6281016898
 H,0,4.3702567943,3.7436393944,5.0042339104
 H,0,5.5750080719,4.0720740546,3.7802633287
 C,0,3.6231645882,6.5640063848,3.7131567477
 C,0,1.3956021605,5.9319043045,2.6201222758
 C,0,1.8335345765,5.2099887942,4.9460415271
 H,0,5.2381370491,7.0151446365,2.3024902911
 H,0,3.6322880157,7.2487665278,1.6317482136
 H,0,4.3944122555,5.9914139312,5.6825333412
 H,0,5.6527021815,6.3314442668,4.5059574943
 H,0,3.2684084976,7.5307729226,4.0799519644
 H,0,1.7259375154,6.0399433355,1.5874961875
 H,0,0.5579519243,5.232770033,2.6254117585
 H,0,1.004241328,6.9027038964,2.9430873431
 H,0,0.974019651,4.5467679533,4.8371348923
 H,0,2.4977431077,4.766781258,5.6873270412
 H,0,1.4600446882,6.1523230919,5.3612695607
 Recover connectivity data from disk.

 GradGradGradGradGradGradGradGradGradGradGradGradGradGradGradGradGradGrad
 Initialization pass.
                           ----------------------------
                           !    Initial Parameters    !
                           ! (Angstroms and Degrees)  !
 --------------------------                            --------------------------
 ! Name  Definition              Value          Derivative Info.                !
 --------------------------------------------------------------------------------
 ! R1    R(1,2)                  1.5652         estimate D2E/DX2                !
 ! R2    R(1,6)                  1.5653         estimate D2E/DX2                !
 ! R3    R(1,7)                  1.6013         estimate D2E/DX2                !
 ! R4    R(1,25)                 1.56           estimate D2E/DX2                !
 ! R5    R(2,3)                  1.5577         estimate D2E/DX2                !
 ! R6    R(2,18)                 1.0899         estimate D2E/DX2                !
 ! R7    R(2,19)                 1.0903         estimate D2E/DX2                !
 ! R8    R(3,4)                  1.5389         estimate D2E/DX2                !
 ! R9    R(3,22)                 1.093          estimate D2E/DX2                !
 ! R10   R(3,23)                 1.0923         estimate D2E/DX2                !
 ! R11   R(4,5)                  1.5389         estimate D2E/DX2                !
 ! R12   R(4,7)                  1.5579         estimate D2E/DX2                !
 ! R13   R(4,16)                 1.0932         estimate D2E/DX2                !
 ! R14   R(5,6)                  1.5577         estimate D2E/DX2                !
 ! R15   R(5,20)                 1.0923         estimate D2E/DX2                !
 ! R16   R(5,21)                 1.093          estimate D2E/DX2                !
 ! R17   R(6,10)                 1.0903         estimate D2E/DX2                !
 ! R18   R(6,17)                 1.0899         estimate D2E/DX2                !
 ! R19   R(7,8)                  1.5414         estimate D2E/DX2                !
 ! R20   R(7,9)                  1.5414         estimate D2E/DX2                !
 ! R21   R(8,11)                 1.0895         estimate D2E/DX2                !
 ! R22   R(8,12)                 1.0911         estimate D2E/DX2                !
 ! R23   R(8,24)                 1.0954         estimate D2E/DX2                !
 ! R24   R(9,13)                 1.0911         estimate D2E/DX2                !
 ! R25   R(9,14)                 1.0895         estimate D2E/DX2                !
 ! R26   R(9,15)                 1.0954         estimate D2E/DX2                !
 ! R27   R(25,26)                1.5652         estimate D2E/DX2                !
 ! R28   R(25,27)                1.5653         estimate D2E/DX2                !
 ! R29   R(25,28)                1.6013         estimate D2E/DX2                !
 ! R30   R(26,29)                1.5577         estimate D2E/DX2                !
 ! R31   R(26,30)                1.0899         estimate D2E/DX2                !
 ! R32   R(26,31)                1.0903         estimate D2E/DX2                !
 ! R33   R(27,32)                1.5577         estimate D2E/DX2                !
 ! R34   R(27,33)                1.0903         estimate D2E/DX2                !
 ! R35   R(27,34)                1.0899         estimate D2E/DX2                !
 ! R36   R(28,35)                1.5579         estimate D2E/DX2                !
 ! R37   R(28,36)                1.5414         estimate D2E/DX2                !
 ! R38   R(28,37)                1.5414         estimate D2E/DX2                !
 ! R39   R(29,35)                1.5389         estimate D2E/DX2                !
 ! R40   R(29,38)                1.093          estimate D2E/DX2                !
 ! R41   R(29,39)                1.0923         estimate D2E/DX2                !
 ! R42   R(32,35)                1.5389         estimate D2E/DX2                !
 ! R43   R(32,40)                1.0923         estimate D2E/DX2                !
 ! R44   R(32,41)                1.093          estimate D2E/DX2                !
 ! R45   R(35,42)                1.0932         estimate D2E/DX2                !
 ! R46   R(36,43)                1.0895         estimate D2E/DX2                !
 ! R47   R(36,44)                1.0911         estimate D2E/DX2                !
 ! R48   R(36,45)                1.0954         estimate D2E/DX2                !
 ! R49   R(37,46)                1.0911         estimate D2E/DX2                !
 ! R50   R(37,47)                1.0895         estimate D2E/DX2                !
 ! R51   R(37,48)                1.0954         estimate D2E/DX2                !
 ! A1    A(2,1,6)              104.1165         estimate D2E/DX2                !
 ! A2    A(2,1,7)              100.5419         estimate D2E/DX2                !
 ! A3    A(2,1,25)             114.7625         estimate D2E/DX2                !
 ! A4    A(6,1,7)              100.5392         estimate D2E/DX2                !
 ! A5    A(6,1,25)             114.7606         estimate D2E/DX2                !
 ! A6    A(7,1,25)             119.754          estimate D2E/DX2                !
 ! A7    A(1,2,3)              104.8535         estimate D2E/DX2                !
 ! A8    A(1,2,18)             110.77           estimate D2E/DX2                !
 ! A9    A(1,2,19)             112.2147         estimate D2E/DX2                !
 ! A10   A(3,2,18)             111.4923         estimate D2E/DX2                !
 ! A11   A(3,2,19)             110.9599         estimate D2E/DX2                !
 ! A12   A(18,2,19)            106.6483         estimate D2E/DX2                !
 ! A13   A(2,3,4)              102.8492         estimate D2E/DX2                !
 ! A14   A(2,3,22)             112.4388         estimate D2E/DX2                !
 ! A15   A(2,3,23)             111.466          estimate D2E/DX2                !
 ! A16   A(4,3,22)             111.6043         estimate D2E/DX2                !
 ! A17   A(4,3,23)             111.644          estimate D2E/DX2                !
 ! A18   A(22,3,23)            106.9342         estimate D2E/DX2                !
 ! A19   A(3,4,5)              107.4104         estimate D2E/DX2                !
 ! A20   A(3,4,7)              103.0716         estimate D2E/DX2                !
 ! A21   A(3,4,16)             114.0103         estimate D2E/DX2                !
 ! A22   A(5,4,7)              103.0685         estimate D2E/DX2                !
 ! A23   A(5,4,16)             114.0102         estimate D2E/DX2                !
 ! A24   A(7,4,16)             114.1155         estimate D2E/DX2                !
 ! A25   A(4,5,6)              102.8473         estimate D2E/DX2                !
 ! A26   A(4,5,20)             111.6435         estimate D2E/DX2                !
 ! A27   A(4,5,21)             111.6061         estimate D2E/DX2                !
 ! A28   A(6,5,20)             111.4648         estimate D2E/DX2                !
 ! A29   A(6,5,21)             112.4395         estimate D2E/DX2                !
 ! A30   A(20,5,21)            106.9351         estimate D2E/DX2                !
 ! A31   A(1,6,5)              104.8555         estimate D2E/DX2                !
 ! A32   A(1,6,10)             112.2159         estimate D2E/DX2                !
 ! A33   A(1,6,17)             110.7673         estimate D2E/DX2                !
 ! A34   A(5,6,10)             110.9633         estimate D2E/DX2                !
 ! A35   A(5,6,17)             111.4901         estimate D2E/DX2                !
 ! A36   A(10,6,17)            106.6467         estimate D2E/DX2                !
 ! A37   A(1,7,4)               93.5104         estimate D2E/DX2                !
 ! A38   A(1,7,8)              116.6426         estimate D2E/DX2                !
 ! A39   A(1,7,9)              116.6391         estimate D2E/DX2                !
 ! A40   A(4,7,8)              111.4124         estimate D2E/DX2                !
 ! A41   A(4,7,9)              111.4105         estimate D2E/DX2                !
 ! A42   A(8,7,9)              106.773          estimate D2E/DX2                !
 ! A43   A(7,8,11)             113.8771         estimate D2E/DX2                !
 ! A44   A(7,8,12)             111.3832         estimate D2E/DX2                !
 ! A45   A(7,8,24)             109.3345         estimate D2E/DX2                !
 ! A46   A(11,8,12)            107.5115         estimate D2E/DX2                !
 ! A47   A(11,8,24)            107.4499         estimate D2E/DX2                !
 ! A48   A(12,8,24)            106.9872         estimate D2E/DX2                !
 ! A49   A(7,9,13)             111.3825         estimate D2E/DX2                !
 ! A50   A(7,9,14)             113.8766         estimate D2E/DX2                !
 ! A51   A(7,9,15)             109.3355         estimate D2E/DX2                !
 ! A52   A(13,9,14)            107.5104         estimate D2E/DX2                !
 ! A53   A(13,9,15)            106.9869         estimate D2E/DX2                !
 ! A54   A(14,9,15)            107.4514         estimate D2E/DX2                !
 ! A55   A(1,25,26)            114.762          estimate D2E/DX2                !
 ! A56   A(1,25,27)            114.7628         estimate D2E/DX2                !
 ! A57   A(1,25,28)            119.7521         estimate D2E/DX2                !
 ! A58   A(26,25,27)           104.1169         estimate D2E/DX2                !
 ! A59   A(26,25,28)           100.5414         estimate D2E/DX2                !
 ! A60   A(27,25,28)           100.5394         estimate D2E/DX2                !
 ! A61   A(25,26,29)           104.8537         estimate D2E/DX2                !
 ! A62   A(25,26,30)           110.77           estimate D2E/DX2                !
 ! A63   A(25,26,31)           112.2146         estimate D2E/DX2                !
 ! A64   A(29,26,30)           111.4924         estimate D2E/DX2                !
 ! A65   A(29,26,31)           110.9598         estimate D2E/DX2                !
 ! A66   A(30,26,31)           106.6483         estimate D2E/DX2                !
 ! A67   A(25,27,32)           104.8554         estimate D2E/DX2                !
 ! A68   A(25,27,33)           112.2162         estimate D2E/DX2                !
 ! A69   A(25,27,34)           110.7673         estimate D2E/DX2                !
 ! A70   A(32,27,33)           110.9634         estimate D2E/DX2                !
 ! A71   A(32,27,34)           111.4897         estimate D2E/DX2                !
 ! A72   A(33,27,34)           106.6468         estimate D2E/DX2                !
 ! A73   A(25,28,35)            93.5107         estimate D2E/DX2                !
 ! A74   A(25,28,36)           116.6413         estimate D2E/DX2                !
 ! A75   A(25,28,37)           116.6392         estimate D2E/DX2                !
 ! A76   A(35,28,36)           111.4131         estimate D2E/DX2                !
 ! A77   A(35,28,37)           111.4106         estimate D2E/DX2                !
 ! A78   A(36,28,37)           106.7731         estimate D2E/DX2                !
 ! A79   A(26,29,35)           102.8491         estimate D2E/DX2                !
 ! A80   A(26,29,38)           112.4389         estimate D2E/DX2                !
 ! A81   A(26,29,39)           111.4659         estimate D2E/DX2                !
 ! A82   A(35,29,38)           111.6044         estimate D2E/DX2                !
 ! A83   A(35,29,39)           111.6439         estimate D2E/DX2                !
 ! A84   A(38,29,39)           106.9342         estimate D2E/DX2                !
 ! A85   A(27,32,35)           102.8474         estimate D2E/DX2                !
 ! A86   A(27,32,40)           111.4648         estimate D2E/DX2                !
 ! A87   A(27,32,41)           112.4394         estimate D2E/DX2                !
 ! A88   A(35,32,40)           111.6435         estimate D2E/DX2                !
 ! A89   A(35,32,41)           111.6061         estimate D2E/DX2                !
 ! A90   A(40,32,41)           106.9351         estimate D2E/DX2                !
 ! A91   A(28,35,29)           103.0714         estimate D2E/DX2                !
 ! A92   A(28,35,32)           103.0684         estimate D2E/DX2                !
 ! A93   A(28,35,42)           114.1156         estimate D2E/DX2                !
 ! A94   A(29,35,32)           107.4105         estimate D2E/DX2                !
 ! A95   A(29,35,42)           114.0103         estimate D2E/DX2                !
 ! A96   A(32,35,42)           114.0102         estimate D2E/DX2                !
 ! A97   A(28,36,43)           113.8769         estimate D2E/DX2                !
 ! A98   A(28,36,44)           111.383          estimate D2E/DX2                !
 ! A99   A(28,36,45)           109.3347         estimate D2E/DX2                !
 ! A100  A(43,36,44)           107.5114         estimate D2E/DX2                !
 ! A101  A(43,36,45)           107.45           estimate D2E/DX2                !
 ! A102  A(44,36,45)           106.9874         estimate D2E/DX2                !
 ! A103  A(28,37,46)           111.3825         estimate D2E/DX2                !
 ! A104  A(28,37,47)           113.8767         estimate D2E/DX2                !
 ! A105  A(28,37,48)           109.3355         estimate D2E/DX2                !
 ! A106  A(46,37,47)           107.5104         estimate D2E/DX2                !
 ! A107  A(46,37,48)           106.9869         estimate D2E/DX2                !
 ! A108  A(47,37,48)           107.4513         estimate D2E/DX2                !
 ! D1    D(6,1,2,3)             70.4959         estimate D2E/DX2                !
 ! D2    D(6,1,2,18)           -49.9001         estimate D2E/DX2                !
 ! D3    D(6,1,2,19)          -168.9692         estimate D2E/DX2                !
 ! D4    D(7,1,2,3)            -33.3106         estimate D2E/DX2                !
 ! D5    D(7,1,2,18)          -153.7065         estimate D2E/DX2                !
 ! D6    D(7,1,2,19)            87.2243         estimate D2E/DX2                !
 ! D7    D(25,1,2,3)          -163.2332         estimate D2E/DX2                !
 ! D8    D(25,1,2,18)           76.3708         estimate D2E/DX2                !
 ! D9    D(25,1,2,19)          -42.6983         estimate D2E/DX2                !
 ! D10   D(2,1,6,5)            -70.5054         estimate D2E/DX2                !
 ! D11   D(2,1,6,10)           168.9537         estimate D2E/DX2                !
 ! D12   D(2,1,6,17)            49.8876         estimate D2E/DX2                !
 ! D13   D(7,1,6,5)             33.3031         estimate D2E/DX2                !
 ! D14   D(7,1,6,10)           -87.2378         estimate D2E/DX2                !
 ! D15   D(7,1,6,17)           153.6961         estimate D2E/DX2                !
 ! D16   D(25,1,6,5)           163.2225         estimate D2E/DX2                !
 ! D17   D(25,1,6,10)           42.6816         estimate D2E/DX2                !
 ! D18   D(25,1,6,17)          -76.3845         estimate D2E/DX2                !
 ! D19   D(2,1,7,4)             53.3384         estimate D2E/DX2                !
 ! D20   D(2,1,7,8)            -62.7649         estimate D2E/DX2                !
 ! D21   D(2,1,7,9)            169.4383         estimate D2E/DX2                !
 ! D22   D(6,1,7,4)            -53.3377         estimate D2E/DX2                !
 ! D23   D(6,1,7,8)           -169.441          estimate D2E/DX2                !
 ! D24   D(6,1,7,9)             62.7622         estimate D2E/DX2                !
 ! D25   D(25,1,7,4)          -179.9973         estimate D2E/DX2                !
 ! D26   D(25,1,7,8)            63.8994         estimate D2E/DX2                !
 ! D27   D(25,1,7,9)           -63.8973         estimate D2E/DX2                !
 ! D28   D(2,1,25,26)          179.9983         estimate D2E/DX2                !
 ! D29   D(2,1,25,27)           59.43           estimate D2E/DX2                !
 ! D30   D(2,1,25,28)          -60.2849         estimate D2E/DX2                !
 ! D31   D(6,1,25,26)          -59.4354         estimate D2E/DX2                !
 ! D32   D(6,1,25,27)          179.9963         estimate D2E/DX2                !
 ! D33   D(6,1,25,28)           60.2814         estimate D2E/DX2                !
 ! D34   D(7,1,25,26)           60.2786         estimate D2E/DX2                !
 ! D35   D(7,1,25,27)          -60.2897         estimate D2E/DX2                !
 ! D36   D(7,1,25,28)          179.9955         estimate D2E/DX2                !
 ! D37   D(1,2,3,4)             -1.2649         estimate D2E/DX2                !
 ! D38   D(1,2,3,22)          -121.4492         estimate D2E/DX2                !
 ! D39   D(1,2,3,23)           118.4842         estimate D2E/DX2                !
 ! D40   D(18,2,3,4)           118.6505         estimate D2E/DX2                !
 ! D41   D(18,2,3,22)           -1.5337         estimate D2E/DX2                !
 ! D42   D(18,2,3,23)         -121.6004         estimate D2E/DX2                !
 ! D43   D(19,2,3,4)          -122.6278         estimate D2E/DX2                !
 ! D44   D(19,2,3,22)          117.188          estimate D2E/DX2                !
 ! D45   D(19,2,3,23)           -2.8787         estimate D2E/DX2                !
 ! D46   D(2,3,4,5)            -71.5146         estimate D2E/DX2                !
 ! D47   D(2,3,4,7)             36.9117         estimate D2E/DX2                !
 ! D48   D(2,3,4,16)           161.1477         estimate D2E/DX2                !
 ! D49   D(22,3,4,5)            49.2433         estimate D2E/DX2                !
 ! D50   D(22,3,4,7)           157.6696         estimate D2E/DX2                !
 ! D51   D(22,3,4,16)          -78.0944         estimate D2E/DX2                !
 ! D52   D(23,3,4,5)           168.8596         estimate D2E/DX2                !
 ! D53   D(23,3,4,7)           -82.7141         estimate D2E/DX2                !
 ! D54   D(23,3,4,16)           41.5219         estimate D2E/DX2                !
 ! D55   D(3,4,5,6)             71.5055         estimate D2E/DX2                !
 ! D56   D(3,4,5,20)          -168.8715         estimate D2E/DX2                !
 ! D57   D(3,4,5,21)           -49.253          estimate D2E/DX2                !
 ! D58   D(7,4,5,6)            -36.923          estimate D2E/DX2                !
 ! D59   D(7,4,5,20)            82.7            estimate D2E/DX2                !
 ! D60   D(7,4,5,21)          -157.6815         estimate D2E/DX2                !
 ! D61   D(16,4,5,6)          -161.1568         estimate D2E/DX2                !
 ! D62   D(16,4,5,20)          -41.5338         estimate D2E/DX2                !
 ! D63   D(16,4,5,21)           78.0848         estimate D2E/DX2                !
 ! D64   D(3,4,7,1)            -55.8301         estimate D2E/DX2                !
 ! D65   D(3,4,7,8)             64.6096         estimate D2E/DX2                !
 ! D66   D(3,4,7,9)           -176.2653         estimate D2E/DX2                !
 ! D67   D(5,4,7,1)             55.8385         estimate D2E/DX2                !
 ! D68   D(5,4,7,8)            176.2782         estimate D2E/DX2                !
 ! D69   D(5,4,7,9)            -64.5968         estimate D2E/DX2                !
 ! D70   D(16,4,7,1)          -179.997          estimate D2E/DX2                !
 ! D71   D(16,4,7,8)           -59.5573         estimate D2E/DX2                !
 ! D72   D(16,4,7,9)            59.5678         estimate D2E/DX2                !
 ! D73   D(4,5,6,1)              1.2762         estimate D2E/DX2                !
 ! D74   D(4,5,6,10)           122.6436         estimate D2E/DX2                !
 ! D75   D(4,5,6,17)          -118.636          estimate D2E/DX2                !
 ! D76   D(20,5,6,1)          -118.4707         estimate D2E/DX2                !
 ! D77   D(20,5,6,10)            2.8967         estimate D2E/DX2                !
 ! D78   D(20,5,6,17)          121.6171         estimate D2E/DX2                !
 ! D79   D(21,5,6,1)           121.4617         estimate D2E/DX2                !
 ! D80   D(21,5,6,10)         -117.1708         estimate D2E/DX2                !
 ! D81   D(21,5,6,17)            1.5496         estimate D2E/DX2                !
 ! D82   D(1,7,8,11)            40.4786         estimate D2E/DX2                !
 ! D83   D(1,7,8,12)           -81.3049         estimate D2E/DX2                !
 ! D84   D(1,7,8,24)           160.6676         estimate D2E/DX2                !
 ! D85   D(4,7,8,11)           -65.2047         estimate D2E/DX2                !
 ! D86   D(4,7,8,12)           173.0118         estimate D2E/DX2                !
 ! D87   D(4,7,8,24)            54.9843         estimate D2E/DX2                !
 ! D88   D(9,7,8,11)           172.9432         estimate D2E/DX2                !
 ! D89   D(9,7,8,12)            51.1596         estimate D2E/DX2                !
 ! D90   D(9,7,8,24)           -66.8678         estimate D2E/DX2                !
 ! D91   D(1,7,9,13)            81.3402         estimate D2E/DX2                !
 ! D92   D(1,7,9,14)           -40.441          estimate D2E/DX2                !
 ! D93   D(1,7,9,15)          -160.6324         estimate D2E/DX2                !
 ! D94   D(4,7,9,13)          -172.9797         estimate D2E/DX2                !
 ! D95   D(4,7,9,14)            65.2391         estimate D2E/DX2                !
 ! D96   D(4,7,9,15)           -54.9523         estimate D2E/DX2                !
 ! D97   D(8,7,9,13)           -51.1263         estimate D2E/DX2                !
 ! D98   D(8,7,9,14)          -172.9075         estimate D2E/DX2                !
 ! D99   D(8,7,9,15)            66.9011         estimate D2E/DX2                !
 ! D100  D(1,25,26,29)         163.2309         estimate D2E/DX2                !
 ! D101  D(1,25,26,30)         -76.3729         estimate D2E/DX2                !
 ! D102  D(1,25,26,31)          42.6961         estimate D2E/DX2                !
 ! D103  D(27,25,26,29)        -70.4953         estimate D2E/DX2                !
 ! D104  D(27,25,26,30)         49.9009         estimate D2E/DX2                !
 ! D105  D(27,25,26,31)        168.97           estimate D2E/DX2                !
 ! D106  D(28,25,26,29)         33.3113         estimate D2E/DX2                !
 ! D107  D(28,25,26,30)        153.7075         estimate D2E/DX2                !
 ! D108  D(28,25,26,31)        -87.2234         estimate D2E/DX2                !
 ! D109  D(1,25,27,32)        -163.2214         estimate D2E/DX2                !
 ! D110  D(1,25,27,33)         -42.6803         estimate D2E/DX2                !
 ! D111  D(1,25,27,34)          76.3861         estimate D2E/DX2                !
 ! D112  D(26,25,27,32)         70.5053         estimate D2E/DX2                !
 ! D113  D(26,25,27,33)       -168.9536         estimate D2E/DX2                !
 ! D114  D(26,25,27,34)        -49.8872         estimate D2E/DX2                !
 ! D115  D(28,25,27,32)        -33.3028         estimate D2E/DX2                !
 ! D116  D(28,25,27,33)         87.2383         estimate D2E/DX2                !
 ! D117  D(28,25,27,34)       -153.6953         estimate D2E/DX2                !
 ! D118  D(1,25,28,35)         179.999          estimate D2E/DX2                !
 ! D119  D(1,25,28,36)         -63.897          estimate D2E/DX2                !
 ! D120  D(1,25,28,37)          63.8987         estimate D2E/DX2                !
 ! D121  D(26,25,28,35)        -53.3389         estimate D2E/DX2                !
 ! D122  D(26,25,28,36)         62.765          estimate D2E/DX2                !
 ! D123  D(26,25,28,37)       -169.4393         estimate D2E/DX2                !
 ! D124  D(27,25,28,35)         53.3375         estimate D2E/DX2                !
 ! D125  D(27,25,28,36)        169.4415         estimate D2E/DX2                !
 ! D126  D(27,25,28,37)        -62.7628         estimate D2E/DX2                !
 ! D127  D(25,26,29,35)          1.2641         estimate D2E/DX2                !
 ! D128  D(25,26,29,38)        121.4484         estimate D2E/DX2                !
 ! D129  D(25,26,29,39)       -118.4848         estimate D2E/DX2                !
 ! D130  D(30,26,29,35)       -118.6515         estimate D2E/DX2                !
 ! D131  D(30,26,29,38)          1.5328         estimate D2E/DX2                !
 ! D132  D(30,26,29,39)        121.5996         estimate D2E/DX2                !
 ! D133  D(31,26,29,35)        122.6268         estimate D2E/DX2                !
 ! D134  D(31,26,29,38)       -117.1888         estimate D2E/DX2                !
 ! D135  D(31,26,29,39)          2.8779         estimate D2E/DX2                !
 ! D136  D(25,27,32,35)         -1.2764         estimate D2E/DX2                !
 ! D137  D(25,27,32,40)        118.4705         estimate D2E/DX2                !
 ! D138  D(25,27,32,41)       -121.462          estimate D2E/DX2                !
 ! D139  D(33,27,32,35)       -122.6441         estimate D2E/DX2                !
 ! D140  D(33,27,32,40)         -2.8972         estimate D2E/DX2                !
 ! D141  D(33,27,32,41)        117.1703         estimate D2E/DX2                !
 ! D142  D(34,27,32,35)        118.6355         estimate D2E/DX2                !
 ! D143  D(34,27,32,40)       -121.6176         estimate D2E/DX2                !
 ! D144  D(34,27,32,41)         -1.5501         estimate D2E/DX2                !
 ! D145  D(25,28,35,29)         55.8303         estimate D2E/DX2                !
 ! D146  D(25,28,35,32)        -55.8383         estimate D2E/DX2                !
 ! D147  D(25,28,35,42)        179.9972         estimate D2E/DX2                !
 ! D148  D(36,28,35,29)        -64.6084         estimate D2E/DX2                !
 ! D149  D(36,28,35,32)       -176.2769         estimate D2E/DX2                !
 ! D150  D(36,28,35,42)         59.5585         estimate D2E/DX2                !
 ! D151  D(37,28,35,29)        176.2659         estimate D2E/DX2                !
 ! D152  D(37,28,35,32)         64.5973         estimate D2E/DX2                !
 ! D153  D(37,28,35,42)        -59.5673         estimate D2E/DX2                !
 ! D154  D(25,28,36,43)        -40.4806         estimate D2E/DX2                !
 ! D155  D(25,28,36,44)         81.3025         estimate D2E/DX2                !
 ! D156  D(25,28,36,45)       -160.6698         estimate D2E/DX2                !
 ! D157  D(35,28,36,43)         65.2028         estimate D2E/DX2                !
 ! D158  D(35,28,36,44)       -173.0141         estimate D2E/DX2                !
 ! D159  D(35,28,36,45)        -54.9864         estimate D2E/DX2                !
 ! D160  D(37,28,36,43)       -172.9444         estimate D2E/DX2                !
 ! D161  D(37,28,36,44)        -51.1613         estimate D2E/DX2                !
 ! D162  D(37,28,36,45)         66.8664         estimate D2E/DX2                !
 ! D163  D(25,28,37,46)        -81.3395         estimate D2E/DX2                !
 ! D164  D(25,28,37,47)         40.4418         estimate D2E/DX2                !
 ! D165  D(25,28,37,48)        160.6332         estimate D2E/DX2                !
 ! D166  D(35,28,37,46)        172.9799         estimate D2E/DX2                !
 ! D167  D(35,28,37,47)        -65.2388         estimate D2E/DX2                !
 ! D168  D(35,28,37,48)         54.9526         estimate D2E/DX2                !
 ! D169  D(36,28,37,46)         51.1254         estimate D2E/DX2                !
 ! D170  D(36,28,37,47)        172.9067         estimate D2E/DX2                !
 ! D171  D(36,28,37,48)        -66.9019         estimate D2E/DX2                !
 ! D172  D(26,29,35,28)        -36.9111         estimate D2E/DX2                !
 ! D173  D(26,29,35,32)         71.5151         estimate D2E/DX2                !
 ! D174  D(26,29,35,42)       -161.1471         estimate D2E/DX2                !
 ! D175  D(38,29,35,28)       -157.669          estimate D2E/DX2                !
 ! D176  D(38,29,35,32)        -49.2429         estimate D2E/DX2                !
 ! D177  D(38,29,35,42)         78.0949         estimate D2E/DX2                !
 ! D178  D(39,29,35,28)         82.7146         estimate D2E/DX2                !
 ! D179  D(39,29,35,32)       -168.8593         estimate D2E/DX2                !
 ! D180  D(39,29,35,42)        -41.5214         estimate D2E/DX2                !
 ! D181  D(27,32,35,28)         36.9229         estimate D2E/DX2                !
 ! D182  D(27,32,35,29)        -71.5053         estimate D2E/DX2                !
 ! D183  D(27,32,35,42)        161.1567         estimate D2E/DX2                !
 ! D184  D(40,32,35,28)        -82.7001         estimate D2E/DX2                !
 ! D185  D(40,32,35,29)        168.8716         estimate D2E/DX2                !
 ! D186  D(40,32,35,42)         41.5337         estimate D2E/DX2                !
 ! D187  D(41,32,35,28)        157.6814         estimate D2E/DX2                !
 ! D188  D(41,32,35,29)         49.2532         estimate D2E/DX2                !
 ! D189  D(41,32,35,42)        -78.0848         estimate D2E/DX2                !
 --------------------------------------------------------------------------------
 Number of steps in this run=    288 maximum allowed number of steps=    288.
 GradGradGradGradGradGradGradGradGradGradGradGradGradGradGradGradGradGrad

                    Distance matrix (angstroms):
                    1          2          3          4          5
     1  C    0.000000
     2  C    1.565234   0.000000
     3  C    2.475157   1.557693   0.000000
     4  C    2.301448   2.420922   1.538916   0.000000
     5  C    2.475202   2.924238   2.480659   1.538893   0.000000
     6  C    1.565256   2.468818   2.924076   2.420866   1.557687
     7  C    1.601264   2.435386   2.424844   1.557922   2.424773
     8  C    2.674580   2.995976   2.925069   2.560520   3.833192
     9  C    2.674534   3.883861   3.833232   2.560495   2.924812
    10  H    2.220194   3.449144   3.948320   3.190525   2.197802
    11  H    2.857289   2.628354   2.657073   2.896994   4.228441
    12  H    3.114779   3.701118   3.929021   3.514378   4.612268
    13  H    3.115006   4.416815   4.612334   3.514333   3.928960
    14  H    2.857001   4.204219   4.228532   2.897228   2.657049
    15  H    3.575368   4.557577   4.151326   2.750422   3.293856
    16  H    3.340708   3.406389   2.220890   1.093173   2.220868
    17  H    2.201738   2.606609   3.238943   3.166063   2.204113
    18  H    2.201742   1.089873   2.204137   3.166231   3.239316
    19  H    2.220160   1.090289   2.197766   3.190437   3.948398
    20  H    3.217435   3.937515   3.447195   2.191147   1.092256
    21  H    3.248304   3.272459   2.647591   2.191264   1.093025
    22  H    3.248170   2.218305   1.093029   2.191265   2.647499
    23  H    3.217504   2.205604   1.092259   2.191175   3.447178
    24  H    3.575481   3.797643   3.294588   2.750691   4.151378
    25  C    1.559976   2.632291   3.900191   3.816954   3.900179
    26  C    2.632284   4.040330   5.084954   4.577137   4.442095
    27  C    2.632316   3.198331   4.442229   4.577246   5.085026
    28  C    2.734363   3.324944   4.802639   5.004574   4.802632
    29  C    3.900182   5.084967   6.343674   6.033384   5.838530
    30  H    3.025145   4.444845   5.295776   4.626711   4.733999
    31  H    2.800900   4.304746   5.181520   4.475179   4.011072
    32  C    3.900194   4.442108   5.838584   6.033458   6.343708
    33  H    2.800870   2.796926   4.011168   4.475205   5.181566
    34  H    3.025254   3.761728   4.734301   4.626954   5.295922
    35  C    3.816946   4.577159   6.033404   6.107210   6.033378
    36  C    3.390298   4.076440   5.384763   5.433486   4.780966
    37  C    3.390276   3.241655   4.781002   5.433524   5.384832
    38  H    4.676858   5.869253   7.080487   6.712248   6.657237
    39  H    4.490463   5.709421   6.944630   6.568659   6.126793
    40  H    4.490312   4.685736   6.126689   6.568594   6.944505
    41  H    4.676980   5.353681   6.657364   6.712435   7.080649
    42  H    4.801984   5.437048   6.942014   7.103279   6.941971
    43  H    3.529982   4.545588   5.698160   5.446448   4.652832
    44  H    3.340246   3.755879   4.932137   5.093083   4.299927
    45  H    4.437742   5.000129   6.366116   6.507127   5.843520
    46  H    3.340635   2.881060   4.300460   5.093585   4.932554
    47  H    3.529482   3.144791   4.652294   5.445943   5.697711
    48  H    4.437773   4.318711   5.843643   6.507257   6.366404
                    6          7          8          9         10
     6  C    0.000000
     7  C    2.435355   0.000000
     8  C    3.883866   1.541363   0.000000
     9  C    2.995838   1.541368   2.474438   0.000000
    10  H    1.090287   2.915221   4.395572   2.930597   0.000000
    11  H    4.204355   2.218661   1.089546   3.461246   4.892810
    12  H    4.416676   2.189206   1.091088   2.648187   4.733932
    13  H    3.701353   2.189208   2.647925   1.091095   3.493887
    14  H    2.628091   2.218661   3.461209   1.089546   2.240448
    15  H    3.797183   2.166515   2.750742   1.095401   3.794518
    16  H    3.406363   2.239158   2.862648   2.862694   4.051010
    17  H    1.089888   3.381017   4.719375   4.080741   1.748542
    18  H    2.606737   3.381086   4.080863   4.719398   3.592743
    19  H    3.449163   2.915113   2.930566   4.395471   4.337270
    20  H    2.205581   2.864393   4.286570   2.776885   2.348010
    21  H    2.218304   3.383765   4.673207   4.004662   2.930817
    22  H    3.272129   3.383778   4.004922   4.673143   4.330750
    23  H    3.937428   2.864607   2.777367   4.286805   4.919766
    24  H    4.557620   2.166503   1.095409   2.750433   5.055484
    25  C    2.632281   2.734393   3.390382   3.390300   2.800825
    26  C    3.198327   3.324916   4.076434   3.241618   2.796917
    27  C    4.040362   3.325046   3.241864   4.076563   4.304740
    28  C    3.324887   4.200975   4.886700   4.886561   3.447044
    29  C    4.442168   4.802638   5.384832   4.780978   4.011077
    30  H    3.761613   3.189793   3.682386   2.817838   3.381131
    31  H    2.796953   3.447225   4.516631   3.109227   2.074307
    32  C    5.084967   4.802761   4.781230   5.384976   5.181491
    33  H    4.304741   3.447246   3.109375   4.516658   4.807755
    34  H    4.444950   3.190040   2.818186   3.682640   4.613360
    35  C    4.577134   5.004619   5.433653   5.433544   4.475055
    36  C    3.241604   4.886581   5.904398   5.360731   3.109034
    37  C    4.076377   4.886606   5.360936   5.904307   4.516440
    38  H    5.353702   5.346134   5.709544   5.176790   4.899845
    39  H    4.685983   5.469717   6.246381   5.324766   4.080748
    40  H    5.709217   5.469746   5.325025   6.246459   5.944867
    41  H    5.869409   5.346377   5.177082   5.709891   5.846032
    42  H    5.436989   6.067387   6.499231   6.499086   5.305490
    43  H    3.145377   4.827961   5.970910   4.985701   2.650505
    44  H    2.880446   4.865509   5.990218   5.482570   2.964557
    45  H    4.318598   5.949028   6.891480   6.412919   4.154390
    46  H    3.756045   4.865999   5.483317   5.990500   4.358366
    47  H    4.545073   4.827540   4.985516   5.970493   5.093107
    48  H    5.000299   5.949032   6.412971   6.891361   5.330841
                   11         12         13         14         15
    11  H    0.000000
    12  H    1.758690   0.000000
    13  H    3.654462   2.352745   0.000000
    14  H    4.361793   3.654482   1.758683   0.000000
    15  H    3.784795   3.023919   1.757483   1.761493   0.000000
    16  H    3.288477   3.839641   3.839508   3.288960   2.609993
    17  H    4.847305   5.277514   4.744615   3.686316   4.874405
    18  H    3.686557   4.744318   5.277721   4.847196   5.440996
    19  H    2.240655   3.493421   4.733930   4.892555   5.055441
    20  H    4.887993   4.963856   3.807983   2.257670   2.956264
    21  H    4.901224   5.540764   5.018444   3.714500   4.282744
    22  H    3.714558   5.018507   5.540761   4.901222   4.937057
    23  H    2.257750   3.808304   4.964043   4.888267   4.453114
    24  H    1.761483   1.757488   3.023064   3.784652   2.572632
    25  C    3.530056   3.340378   3.340677   3.529476   4.437801
    26  C    4.545578   3.755900   2.881024   3.144753   4.318673
    27  C    3.145579   2.880793   3.756263   4.545204   5.000511
    28  C    4.828115   4.865698   4.865995   4.827421   5.948992
    29  C    5.698230   4.932259   4.300459   4.652228   5.843622
    30  H    4.312765   3.149077   2.138837   2.947910   3.799807
    31  H    5.093627   4.358447   2.965375   2.650072   4.154496
    32  C    4.653070   4.300290   4.932747   5.697782   6.366580
    33  H    2.650816   2.964973   4.358608   5.093258   5.331097
    34  H    2.948793   2.138769   3.149434   4.312517   4.503867
    35  C    5.446624   5.093330   5.093648   5.445889   6.507291
    36  C    5.970975   5.990283   5.483163   4.985225   6.412752
    37  C    4.985959   5.482852   5.990550   5.970401   6.891375
    38  H    6.067758   5.066044   4.489268   5.156334   6.171951
    39  H    6.603874   5.868544   4.929937   4.980657   6.381965
    40  H    4.981500   4.929783   5.868978   6.603352   7.198630
    41  H    5.157152   4.489204   5.066714   6.067524   6.642944
    42  H    6.449668   6.156623   6.156919   6.448862   7.579656
    43  H    6.230298   5.996485   5.069373   4.447978   6.028464
    44  H    5.996503   6.267794   5.809679   5.068375   6.461958
    45  H    6.896913   6.914902   6.462816   6.028166   7.476741
    46  H    5.069595   5.809901   6.268407   5.996298   6.915044
    47  H    4.448312   5.068745   5.996437   6.229435   6.896473
    48  H    6.028743   6.462265   6.915090   6.896353   7.907015
                   16         17         18         19         20
    16  H    0.000000
    17  H    4.168075   0.000000
    18  H    4.168226   2.271088   0.000000
    19  H    4.050850   3.592724   1.748550   0.000000
    20  H    2.491139   2.948951   4.299362   4.919735   0.000000
    21  H    2.702724   2.374332   3.311053   4.331037   1.755918
    22  H    2.702786   3.310447   2.374360   2.930876   3.631058
    23  H    2.491115   4.299034   2.948897   2.347973   4.309366
    24  H    2.610194   5.441065   4.874880   3.794817   4.452862
    25  C    4.802000   3.025202   3.025135   2.800925   4.490298
    26  C    5.437022   3.761729   4.444854   4.304750   4.685720
    27  C    5.437133   4.444887   3.761556   2.796959   5.709299
    28  C    6.067350   3.189842   3.189787   3.447333   5.469597
    29  C    6.941997   4.734227   5.295779   5.181565   6.126621
    30  H    5.330204   4.517477   5.056160   4.613270   4.857585
    31  H    5.305681   3.381239   4.613302   4.807797   4.080601
    32  C    6.942085   5.295792   4.733940   4.011127   6.944519
    33  H    5.305681   4.613287   3.381052   2.074318   5.944970
    34  H    5.330462   5.056262   4.517431   3.381198   5.778021
    35  C    7.103294   4.626794   4.626688   4.475264   6.568504
    36  C    6.499050   2.817925   3.682410   4.516725   5.324706
    37  C    6.499084   3.682368   2.817789   3.109394   6.246301
    38  H    7.543516   5.747209   6.192864   5.845887   6.878962
    39  H    7.489755   4.858063   5.778103   5.945147   6.326642
    40  H    7.489719   5.777850   4.857505   4.080681   7.654797
    41  H    7.543725   6.193027   5.746968   4.899840   7.577855
    42  H    8.124370   5.330262   5.330179   5.305788   7.489584
    43  H    6.449464   2.948657   4.312822   5.093697   4.981190
    44  H    6.156355   2.138407   3.149104   4.358526   4.929359
    45  H    7.579528   3.799695   4.503237   5.330925   6.381910
    46  H    6.156867   3.149127   2.138801   2.965551   5.868766
    47  H    6.448948   4.312290   2.947824   2.650239   6.603282
    48  H    7.579640   4.503563   3.799762   4.154669   7.198430
                   21         22         23         24         25
    21  H    0.000000
    22  H    2.344050   0.000000
    23  H    3.631064   1.755911   0.000000
    24  H    4.937281   4.283530   2.957343   0.000000
    25  C    4.676957   4.676860   4.490480   4.437821   0.000000
    26  C    5.353673   5.869249   5.709400   5.000126   1.565234
    27  C    5.869438   5.353734   4.686067   4.318873   1.565257
    28  C    5.346234   5.346109   5.469762   5.949127   1.601259
    29  C    6.657305   7.080479   6.944645   6.366187   2.475159
    30  H    5.747026   6.192876   5.778076   4.503239   2.201743
    31  H    4.899810   5.845864   5.945086   5.330813   2.220159
    32  C    7.080617   6.657254   6.126893   5.843810   2.475201
    33  H    5.846071   4.899893   4.080880   4.154743   2.220198
    34  H    6.193127   5.747266   4.858139   3.800001   2.201738
    35  C    6.712335   6.712240   6.568721   6.507294   2.301449
    36  C    5.176819   5.709462   6.246355   6.891437   2.674557
    37  C    5.709709   5.176761   5.324866   6.413105   2.674532
    38  H    7.544590   7.900235   7.577842   6.642285   3.248168
    39  H    6.879199   7.577824   7.655054   7.198281   3.217511
    40  H    7.577799   6.878978   6.326776   6.382258   3.217433
    41  H    7.900475   7.544616   6.879295   6.172107   3.248304
    42  H    7.543584   7.543497   7.489827   7.579708   3.340708
    43  H    5.156939   6.067694   6.603824   6.896802   2.857267
    44  H    4.488842   5.065911   5.868470   6.914779   3.114732
    45  H    6.171798   6.642182   7.198267   7.907106   3.575470
    46  H    5.066481   4.489216   4.930017   6.462940   3.114999
    47  H    6.067407   5.156335   4.980807   6.028454   2.857007
    48  H    6.642722   6.171912   6.382073   7.476943   3.575367
                   26         27         28         29         30
    26  C    0.000000
    27  C    2.468826   0.000000
    28  C    2.435372   2.435355   0.000000
    29  C    1.557693   2.924079   2.424840   0.000000
    30  H    1.089873   2.606754   3.381078   2.204138   0.000000
    31  H    1.090289   3.449170   2.915090   2.197765   1.748550
    32  C    2.924243   1.557687   2.424771   2.480660   3.239335
    33  H    3.449151   1.090287   2.915231   3.948325   3.592758
    34  H    2.606615   1.089887   3.381013   3.238937   2.271106
    35  C    2.420920   2.420869   1.557921   1.538916   3.166237
    36  C    2.995937   3.883857   1.541362   2.925063   4.080824
    37  C    3.883853   2.995848   1.541369   3.833230   4.719400
    38  H    2.218306   3.272126   3.383773   1.093029   2.374362
    39  H    2.205604   3.937432   2.864606   1.092258   2.948892
    40  H    3.937519   2.205582   2.864393   3.447196   4.299380
    41  H    3.272470   2.218304   3.383763   2.647594   3.311078
    42  H    3.406386   3.406366   2.239158   2.220890   4.168232
    43  H    2.628304   4.204339   2.218658   2.657052   3.686501
    44  H    3.701056   4.416650   2.189203   3.929006   4.744250
    45  H    3.797625   4.557631   2.166505   3.294608   4.874867
    46  H    4.416800   3.701357   2.189209   4.612330   5.277712
    47  H    4.204223   2.628108   2.218662   4.228535   4.847212
    48  H    4.557568   3.797197   2.166515   4.151324   5.440999
                   31         32         33         34         35
    31  H    0.000000
    32  C    3.948399   0.000000
    33  H    4.337277   2.197803   0.000000
    34  H    3.592735   2.204109   1.748542   0.000000
    35  C    3.190427   1.538894   3.190532   3.166058   0.000000
    36  C    2.930503   3.833196   4.395573   4.719357   2.560530
    37  C    4.395448   2.924819   2.930619   4.080749   2.560497
    38  H    2.930881   2.647499   4.330748   3.310432   2.191265
    39  H    2.347969   3.447178   4.919774   4.299029   2.191173
    40  H    4.919732   1.092256   2.348013   2.948950   2.191148
    41  H    4.331046   1.093025   2.930816   2.374326   2.191265
    42  H    4.050837   2.220869   4.051018   4.168071   1.093173
    43  H    2.240581   4.228430   4.892804   4.847276   2.896989
    44  H    3.493330   4.612266   4.733917   5.277476   3.514386
    45  H    3.794769   4.151408   5.055499   5.441070   2.750724
    46  H    4.733899   3.928964   3.493904   4.744619   3.514334
    47  H    4.892547   2.657058   2.240478   3.686336   2.897230
    48  H    5.055412   3.293871   3.794544   4.874417   2.750427
                   36         37         38         39         40
    36  C    0.000000
    37  C    2.474439   0.000000
    38  H    4.004919   4.673143   0.000000
    39  H    2.777368   4.286802   1.755912   0.000000
    40  H    4.286580   2.776894   3.631059   4.309365   0.000000
    41  H    4.673212   4.004669   2.344052   3.631065   1.755917
    42  H    2.862671   2.862693   2.702790   2.491112   2.491140
    43  H    1.089546   3.461247   3.714536   2.257739   4.887990
    44  H    1.091089   2.648198   5.018493   3.808300   4.963866
    45  H    1.095409   2.750425   4.283559   2.957364   4.452895
    46  H    2.647920   1.091095   5.540758   4.964040   3.807990
    47  H    3.461210   1.089546   4.901226   4.888268   2.257676
    48  H    2.750750   1.095401   4.937061   4.453107   2.956284
                   41         42         43         44         45
    41  H    0.000000
    42  H    2.702726   0.000000
    43  H    4.901211   3.288484   0.000000
    44  H    5.540760   3.839672   1.758689   0.000000
    45  H    4.937316   2.610246   1.761485   1.757490   0.000000
    46  H    5.018448   3.839509   3.654464   2.352750   3.023039
    47  H    3.714508   3.288956   4.361793   3.654485   3.784649
    48  H    4.282758   2.609996   3.784798   3.023949   2.572632
                   46         47         48
    46  H    0.000000
    47  H    1.758683   0.000000
    48  H    1.757483   1.761493   0.000000
 Framework group  C1[X(C18H30)]
 Deg. of freedom   138
                         Standard orientation:                         
 ---------------------------------------------------------------------
 Center     Atomic      Atomic             Coordinates (Angstroms)
 Number     Number       Type             X           Y           Z
 ---------------------------------------------------------------------
      1          6           0       -0.742400    0.239173    0.000053
      2          6           0       -1.150314    1.110888    1.234426
      3          6           0       -2.707866    1.090755    1.240277
      4          6           0       -3.043843    0.243904    0.000025
      5          6           0       -2.707900    1.090500   -1.240382
      6          6           0       -1.150357    1.110805   -1.234392
      7          6           0       -1.925093   -0.840310    0.000066
      8          6           0       -2.026966   -1.753958    1.237268
      9          6           0       -2.026909   -1.753927   -1.237170
     10          1           0       -0.751493    0.714707   -2.168598
     11          1           0       -1.846557   -1.240180    2.180981
     12          1           0       -1.323438   -2.585725    1.176569
     13          1           0       -1.323786   -2.586024   -1.176176
     14          1           0       -1.845852   -1.240245   -2.180812
     15          1           0       -3.031829   -2.187065   -1.286469
     16          1           0       -4.058962   -0.161759    0.000075
     17          1           0       -0.764658    2.125355   -1.135497
     18          1           0       -0.764458    2.125369    1.135591
     19          1           0       -0.751636    0.714693    2.168671
     20          1           0       -3.098211    0.638049   -2.154696
     21          1           0       -3.138483    2.092826   -1.172225
     22          1           0       -3.138322    2.093119    1.171825
     23          1           0       -3.098333    0.638595    2.154670
     24          1           0       -3.031716   -2.187557    1.286163
     25          6           0        0.742413   -0.239215    0.000019
     26          6           0        1.150303   -1.110964   -1.234339
     27          6           0        1.150453   -1.110776    1.234488
     28          6           0        1.925067    0.840303   -0.000105
     29          6           0        2.707854   -1.090791   -1.240253
     30          1           0        0.764476   -2.125451   -1.135454
     31          1           0        0.751579   -0.714810   -2.168583
     32          6           0        2.707996   -1.090414    1.240407
     33          1           0        0.751615   -0.714654    2.168694
     34          1           0        0.764793   -2.125345    1.135652
     35          6           0        3.043857   -0.243868   -0.000057
     36          6           0        2.026818    1.753883   -1.237365
     37          6           0        2.026907    1.753997    1.237073
     38          1           0        3.138341   -2.093140   -1.171769
     39          1           0        3.098272   -0.638665   -2.154684
     40          1           0        3.098331   -0.637903    2.154681
     41          1           0        3.138612   -2.092728    1.172282
     42          1           0        4.058961    0.161831   -0.000172
     43          1           0        1.846400    1.240034   -2.181038
     44          1           0        1.323227    2.585600   -1.176684
     45          1           0        3.031533    2.187555   -1.286335
     46          1           0        1.323746    2.586061    1.176066
     47          1           0        1.845919    1.240364    2.180755
     48          1           0        3.031811    2.187180    1.286296
 ---------------------------------------------------------------------
 Rotational constants (GHZ):      0.7475864      0.3579931      0.3398356
   504 basis functions,   816 primitive gaussians,   522 cartesian basis functions
    69 alpha electrons       69 beta electrons
       nuclear repulsion energy      1558.3296683580 Hartrees.
 NAtoms=   48 NActive=   48 NUniq=   48 SFac= 1.00D+00 NAtFMM=   60 NAOKFM=F Big=F
 ExpMin= 1.03D-01 ExpMax= 4.56D+03 ExpMxC= 6.82D+02 IAcc=1 IRadAn=         1 AccDes= 0.00D+00
 Harris functional with IExCor=  908 and IRadAn=       1 diagonalized for initial guess.
 HarFok:  IExCor=  908 AccDes= 0.00D+00 IRadAn=         1 IDoV= 1 UseB2=F ITyADJ=14
 ICtDFT=  3500011 ScaDFX=  1.000000  1.000000  1.000000  1.000000
 FoFCou: FMM=F IPFlag=           0 FMFlag=      100000 FMFlg1=           0
         NFxFlg=           0 DoJE=T BraDBF=F KetDBF=T FulRan=T
         wScrn=  0.000000 ICntrl=     500 IOpCl=  0 I1Cent=   200000004 NGrid=           0
         NMat0=    1 NMatS0=      1 NMatT0=    0 NMatD0=    1 NMtDS0=    0 NMtDT0=    0
 Petite list used in FoFCou.
 Integral accuracy reduced to 1.0D-05 until final iterations.
 Initial convergence to 1.0D-05 achieved.  Increase integral accuracy.
 SCF Done:  E(RmPW1PW91) =  -703.998642512     A.U. after   13 cycles
            NFock= 13  Conv=0.67D-08     -V/T= 2.0055

 **********************************************************************

            Population analysis using the SCF density.

 **********************************************************************

 Orbital symmetries:
       Occupied  (A) (A) (A) (A) (A) (A) (A) (A) (A) (A) (A) (A)
                 (A) (A) (A) (A) (A) (A) (A) (A) (A) (A) (A) (A)
                 (A) (A) (A) (A) (A) (A) (A) (A) (A) (A) (A) (A)
                 (A) (A) (A) (A) (A) (A) (A) (A) (A) (A) (A) (A)
                 (A) (A) (A) (A) (A) (A) (A) (A) (A) (A) (A) (A)
                 (A) (A) (A) (A) (A) (A) (A) (A) (A)
       Virtual   (A) (A) (A) (A) (A) (A) (A) (A) (A) (A) (A) (A)
                 (A) (A) (A) (A) (A) (A) (A) (A) (A) (A) (A) (A)
                 (A) (A) (A) (A) (A) (A) (A) (A) (A) (A) (A) (A)
                 (A) (A) (A) (A) (A) (A) (A) (A) (A) (A) (A) (A)
                 (A) (A) (A) (A) (A) (A) (A) (A) (A) (A) (A) (A)
                 (A) (A) (A) (A) (A) (A) (A) (A) (A) (A) (A) (A)
                 (A) (A) (A) (A) (A) (A) (A) (A) (A) (A) (A) (A)
                 (A) (A) (A) (A) (A) (A) (A) (A) (A) (A) (A) (A)
                 (A) (A) (A) (A) (A) (A) (A) (A) (A) (A) (A) (A)
                 (A) (A) (A) (A) (A) (A) (A) (A) (A) (A) (A) (A)
                 (A) (A) (A) (A) (A) (A) (A) (A) (A) (A) (A) (A)
                 (A) (A) (A) (A) (A) (A) (A) (A) (A) (A) (A) (A)
                 (A) (A) (A) (A) (A) (A) (A) (A) (A) (A) (A) (A)
                 (A) (A) (A) (A) (A) (A) (A) (A) (A) (A) (A) (A)
                 (A) (A) (A) (A) (A) (A) (A) (A) (A) (A) (A) (A)
                 (A) (A) (A) (A) (A) (A) (A) (A) (A) (A) (A) (A)
                 (A) (A) (A) (A) (A) (A) (A) (A) (A) (A) (A) (A)
                 (A) (A) (A) (A) (A) (A) (A) (A) (A) (A) (A) (A)
                 (A) (A) (A) (A) (A) (A) (A) (A) (A) (A) (A) (A)
                 (A) (A) (A) (A) (A) (A) (A) (A) (A) (A) (A) (A)
                 (A) (A) (A) (A) (A) (A) (A) (A) (A) (A) (A) (A)
                 (A) (A) (A) (A) (A) (A) (A) (A) (A) (A) (A) (A)
                 (A) (A) (A) (A) (A) (A) (A) (A) (A) (A) (A) (A)
                 (A) (A) (A) (A) (A) (A) (A) (A) (A) (A) (A) (A)
                 (A) (A) (A) (A) (A) (A) (A) (A) (A) (A) (A) (A)
                 (A) (A) (A) (A) (A) (A) (A) (A) (A) (A) (A) (A)
                 (A) (A) (A) (A) (A) (A) (A) (A) (A) (A) (A) (A)
                 (A) (A) (A) (A) (A) (A) (A) (A) (A) (A) (A) (A)
                 (A) (A) (A) (A) (A) (A) (A) (A) (A) (A) (A) (A)
                 (A) (A) (A) (A) (A) (A) (A) (A) (A) (A) (A) (A)
                 (A) (A) (A) (A) (A) (A) (A) (A) (A) (A) (A) (A)
                 (A) (A) (A) (A) (A) (A) (A) (A) (A) (A) (A) (A)
                 (A) (A) (A) (A) (A) (A) (A) (A) (A) (A) (A) (A)
                 (A) (A) (A) (A) (A) (A) (A) (A) (A) (A) (A) (A)
                 (A) (A) (A) (A) (A) (A) (A) (A) (A) (A) (A) (A)
                 (A) (A) (A) (A) (A) (A) (A) (A) (A) (A) (A) (A)
                 (A) (A) (A)
 The electronic state is 1-A.
 Alpha  occ. eigenvalues --  -10.24444 -10.24422 -10.24252 -10.24251 -10.22592
 Alpha  occ. eigenvalues --  -10.22592 -10.21926 -10.21926 -10.21925 -10.21925
 Alpha  occ. eigenvalues --  -10.21905 -10.21905 -10.21903 -10.21903 -10.21318
 Alpha  occ. eigenvalues --  -10.21318 -10.21317 -10.21317  -0.90530  -0.88687
 Alpha  occ. eigenvalues --   -0.78453  -0.77775  -0.76706  -0.76479  -0.75500
 Alpha  occ. eigenvalues --   -0.71250  -0.69642  -0.69218  -0.65869  -0.64393
 Alpha  occ. eigenvalues --   -0.62533  -0.60556  -0.56022  -0.55435  -0.53542
 Alpha  occ. eigenvalues --   -0.51791  -0.50932  -0.49041  -0.48493  -0.47619
 Alpha  occ. eigenvalues --   -0.46263  -0.44241  -0.43980  -0.43202  -0.41363
 Alpha  occ. eigenvalues --   -0.41229  -0.40747  -0.40087  -0.39781  -0.39760
 Alpha  occ. eigenvalues --   -0.39264  -0.38175  -0.37875  -0.37263  -0.37141
 Alpha  occ. eigenvalues --   -0.35763  -0.34894  -0.33872  -0.33758  -0.33497
 Alpha  occ. eigenvalues --   -0.32593  -0.32289  -0.32284  -0.31822  -0.30840
 Alpha  occ. eigenvalues --   -0.30792  -0.30676  -0.28171  -0.27147
 Alpha virt. eigenvalues --    0.04069   0.05870   0.06105   0.06244   0.07515
 Alpha virt. eigenvalues --    0.08159   0.09380   0.09571   0.10039   0.10491
 Alpha virt. eigenvalues --    0.10668   0.11154   0.11724   0.12650   0.12674
 Alpha virt. eigenvalues --    0.14160   0.14244   0.14435   0.14956   0.15338
 Alpha virt. eigenvalues --    0.15864   0.16044   0.16720   0.17752   0.17790
 Alpha virt. eigenvalues --    0.18145   0.18850   0.19403   0.19835   0.20542
 Alpha virt. eigenvalues --    0.20680   0.21377   0.21756   0.22110   0.22813
 Alpha virt. eigenvalues --    0.23019   0.23552   0.23969   0.24990   0.25061
 Alpha virt. eigenvalues --    0.25714   0.25913   0.27009   0.27271   0.27750
 Alpha virt. eigenvalues --    0.28435   0.28755   0.29354   0.30437   0.31175
 Alpha virt. eigenvalues --    0.31666   0.31741   0.33664   0.34766   0.35222
 Alpha virt. eigenvalues --    0.35255   0.37637   0.38054   0.38065   0.39260
 Alpha virt. eigenvalues --    0.39460   0.41533   0.42454   0.43054   0.43968
 Alpha virt. eigenvalues --    0.44394   0.46279   0.47959   0.48799   0.49075
 Alpha virt. eigenvalues --    0.49378   0.49683   0.50006   0.50896   0.51980
 Alpha virt. eigenvalues --    0.52169   0.52657   0.52883   0.53304   0.54302
 Alpha virt. eigenvalues --    0.54523   0.56255   0.56610   0.57565   0.57801
 Alpha virt. eigenvalues --    0.58205   0.58316   0.58897   0.59236   0.59522
 Alpha virt. eigenvalues --    0.59559   0.60066   0.60298   0.61565   0.61749
 Alpha virt. eigenvalues --    0.61900   0.61901   0.62002   0.62872   0.63168
 Alpha virt. eigenvalues --    0.63660   0.63766   0.64032   0.65031   0.65201
 Alpha virt. eigenvalues --    0.66188   0.66224   0.66436   0.66828   0.67260
 Alpha virt. eigenvalues --    0.67708   0.67713   0.69411   0.69817   0.69823
 Alpha virt. eigenvalues --    0.71117   0.71300   0.72347   0.72442   0.74146
 Alpha virt. eigenvalues --    0.74480   0.75286   0.75902   0.76802   0.78319
 Alpha virt. eigenvalues --    0.79437   0.80045   0.81674   0.81830   0.83155
 Alpha virt. eigenvalues --    0.86552   0.86684   0.87028   0.87398   0.89941
 Alpha virt. eigenvalues --    0.91410   0.91574   0.96058   0.99873   1.01799
 Alpha virt. eigenvalues --    1.02861   1.03414   1.04424   1.08666   1.09887
 Alpha virt. eigenvalues --    1.09924   1.11627   1.12327   1.15720   1.16917
 Alpha virt. eigenvalues --    1.18521   1.19179   1.22953   1.23051   1.23151
 Alpha virt. eigenvalues --    1.24616   1.24929   1.25239   1.27005   1.27946
 Alpha virt. eigenvalues --    1.31655   1.32235   1.32918   1.34630   1.34949
 Alpha virt. eigenvalues --    1.35785   1.36957   1.37687   1.37740   1.41131
 Alpha virt. eigenvalues --    1.41445   1.43997   1.44316   1.44959   1.46192
 Alpha virt. eigenvalues --    1.46766   1.47503   1.47851   1.47872   1.48254
 Alpha virt. eigenvalues --    1.49799   1.50545   1.50865   1.50869   1.51922
 Alpha virt. eigenvalues --    1.52495   1.52517   1.53702   1.55697   1.56367
 Alpha virt. eigenvalues --    1.56385   1.56534   1.58139   1.58327   1.58423
 Alpha virt. eigenvalues --    1.60199   1.60656   1.61418   1.61642   1.61858
 Alpha virt. eigenvalues --    1.61923   1.62116   1.62689   1.64472   1.64981
 Alpha virt. eigenvalues --    1.65212   1.65529   1.66676   1.66693   1.67119
 Alpha virt. eigenvalues --    1.67947   1.69251   1.69495   1.70987   1.71315
 Alpha virt. eigenvalues --    1.71369   1.71771   1.73265   1.73408   1.74660
 Alpha virt. eigenvalues --    1.75197   1.75391   1.75435   1.76461   1.77930
 Alpha virt. eigenvalues --    1.78174   1.78408   1.80462   1.81216   1.81634
 Alpha virt. eigenvalues --    1.81804   1.82542   1.82749   1.83661   1.85592
 Alpha virt. eigenvalues --    1.85870   1.86775   1.86913   1.87534   1.88358
 Alpha virt. eigenvalues --    1.88622   1.89652   1.90422   1.91098   1.91876
 Alpha virt. eigenvalues --    1.92249   1.92856   1.94915   1.96485   1.96979
 Alpha virt. eigenvalues --    1.97279   1.97893   1.98816   2.00070   2.00705
 Alpha virt. eigenvalues --    2.00712   2.02148   2.02549   2.03717   2.06160
 Alpha virt. eigenvalues --    2.08247   2.08331   2.08929   2.09863   2.09914
 Alpha virt. eigenvalues --    2.14302   2.15389   2.16029   2.16829   2.17926
 Alpha virt. eigenvalues --    2.18264   2.19144   2.19423   2.20072   2.20266
 Alpha virt. eigenvalues --    2.22497   2.23920   2.24261   2.25215   2.27482
 Alpha virt. eigenvalues --    2.27507   2.28402   2.30976   2.32104   2.32618
 Alpha virt. eigenvalues --    2.33025   2.35253   2.35322   2.35814   2.36668
 Alpha virt. eigenvalues --    2.40602   2.40686   2.42216   2.43058   2.43758
 Alpha virt. eigenvalues --    2.44321   2.44438   2.44610   2.45507   2.46832
 Alpha virt. eigenvalues --    2.47335   2.48906   2.49234   2.49400   2.49604
 Alpha virt. eigenvalues --    2.50082   2.51275   2.51455   2.52127   2.54383
 Alpha virt. eigenvalues --    2.55141   2.55268   2.55902   2.56892   2.57146
 Alpha virt. eigenvalues --    2.58135   2.58857   2.60333   2.60744   2.61302
 Alpha virt. eigenvalues --    2.62211   2.62299   2.66224   2.66372   2.67405
 Alpha virt. eigenvalues --    2.68970   2.70577   2.71704   2.71982   2.72195
 Alpha virt. eigenvalues --    2.73117   2.74881   2.75605   2.76206   2.76360
 Alpha virt. eigenvalues --    2.77095   2.80068   2.81716   2.82421   2.83604
 Alpha virt. eigenvalues --    2.83888   2.84471   2.84559   2.87325   2.88988
 Alpha virt. eigenvalues --    2.90353   2.92241   2.94449   2.95312   2.97045
 Alpha virt. eigenvalues --    2.97456   2.97558   2.98119   3.00492   3.02160
 Alpha virt. eigenvalues --    3.02283   3.04426   3.05779   3.06910   3.07375
 Alpha virt. eigenvalues --    3.10345   3.12641   3.13278   3.14683   3.16595
 Alpha virt. eigenvalues --    3.17950   3.18421   3.21491   3.22738   3.24686
 Alpha virt. eigenvalues --    3.26084   3.28153   3.28819   3.31464   3.35208
 Alpha virt. eigenvalues --    3.36357   3.37471   3.37820   3.43394   3.47430
 Alpha virt. eigenvalues --    3.50112   3.62474   3.66613   3.67168   3.68843
 Alpha virt. eigenvalues --    3.70277   3.81717   3.83343   3.83563   3.83566
 Alpha virt. eigenvalues --    3.84798   3.85371   3.85402   3.86697   3.86909
 Alpha virt. eigenvalues --    3.87091   3.99532   3.99625   4.01652   4.02301
 Alpha virt. eigenvalues --    4.09345   4.10959   4.16098   4.16553   4.21376
 Alpha virt. eigenvalues --    4.21511   4.24375   4.27780   4.28580   4.29538
 Alpha virt. eigenvalues --    4.33623   4.33796   4.38848   4.39702   4.44299
 Alpha virt. eigenvalues --    4.45999   4.53712  23.84969  23.88745  23.90539
 Alpha virt. eigenvalues --   23.92751  23.93403  23.95829  23.97613  23.98795
 Alpha virt. eigenvalues --   24.01855  24.04170  24.05903  24.06574  24.07006
 Alpha virt. eigenvalues --   24.07884  24.10598  24.11633  24.15570  24.16986
          Condensed to atoms (all electrons):
 Mulliken charges:
               1
     1  C   -0.192769
     2  C   -0.184307
     3  C   -0.205587
     4  C   -0.137886
     5  C   -0.205592
     6  C   -0.184335
     7  C   -0.282441
     8  C   -0.247239
     9  C   -0.247265
    10  H    0.133489
    11  H    0.120427
    12  H    0.120079
    13  H    0.120078
    14  H    0.120442
    15  H    0.121927
    16  H    0.111088
    17  H    0.134153
    18  H    0.134155
    19  H    0.133485
    20  H    0.132393
    21  H    0.125702
    22  H    0.125703
    23  H    0.132386
    24  H    0.121920
    25  C   -0.192785
    26  C   -0.184314
    27  C   -0.184319
    28  C   -0.282445
    29  C   -0.205585
    30  H    0.134155
    31  H    0.133486
    32  C   -0.205598
    33  H    0.133487
    34  H    0.134154
    35  C   -0.137882
    36  C   -0.247242
    37  C   -0.247259
    38  H    0.125703
    39  H    0.132387
    40  H    0.132393
    41  H    0.125702
    42  H    0.111087
    43  H    0.120428
    44  H    0.120078
    45  H    0.121920
    46  H    0.120076
    47  H    0.120442
    48  H    0.121927
 Sum of Mulliken charges =   0.00000
 Mulliken charges with hydrogens summed into heavy atoms:
               1
     1  C   -0.192769
     2  C    0.083333
     3  C    0.052502
     4  C   -0.026799
     5  C    0.052503
     6  C    0.083307
     7  C   -0.282441
     8  C    0.115187
     9  C    0.115182
    25  C   -0.192785
    26  C    0.083327
    27  C    0.083321
    28  C   -0.282445
    29  C    0.052505
    32  C    0.052497
    35  C   -0.026794
    36  C    0.115183
    37  C    0.115186
 Electronic spatial extent (au):  <R**2>=           4056.8237
 Charge=              0.0000 electrons
 Dipole moment (field-independent basis, Debye):
    X=              0.0000    Y=              0.0000    Z=              0.0000  Tot=              0.0000
 Calling FoFJK, ICntrl=      2127 FMM=F ISym2X=0 I1Cent= 0 IOpClX= 0 NMat=1 NMatS=1 NMatT=0.

 GradGradGradGradGradGradGradGradGradGradGradGradGradGradGradGradGradGrad
 FormGI is forming the generalized inverse of G from B-inverse, IUseBI=4.
 Internal  Forces:  Max     0.008442223 RMS     0.001513967
 Step number   1 out of a maximum of  288
 All quantities printed in internal units (Hartrees-Bohrs-Radians)
 Mixed Optimization -- RFO/linear search
 Second derivative matrix not updated -- first step.
 ITU=  0
     Eigenvalues ---    0.00230   0.00230   0.00230   0.00230   0.00230
     Eigenvalues ---    0.00296   0.00296   0.00631   0.00631   0.01704
     Eigenvalues ---    0.01704   0.02125   0.02125   0.02486   0.02486
     Eigenvalues ---    0.02852   0.02852   0.03491   0.03491   0.03537
     Eigenvalues ---    0.03537   0.03988   0.03988   0.03993   0.03993
     Eigenvalues ---    0.04230   0.04230   0.04340   0.04340   0.05069
     Eigenvalues ---    0.05069   0.05086   0.05086   0.05086   0.05086
     Eigenvalues ---    0.05180   0.05180   0.05196   0.05196   0.05561
     Eigenvalues ---    0.05561   0.05565   0.05565   0.05566   0.05566
     Eigenvalues ---    0.06064   0.06064   0.06312   0.06312   0.06729
     Eigenvalues ---    0.06729   0.06731   0.06731   0.07036   0.07036
     Eigenvalues ---    0.07037   0.07037   0.07413   0.07413   0.07611
     Eigenvalues ---    0.07611   0.08802   0.08802   0.08911   0.08911
     Eigenvalues ---    0.10104   0.10104   0.10478   0.10478   0.11733
     Eigenvalues ---    0.11733   0.12572   0.12572   0.16000   0.16000
     Eigenvalues ---    0.16000   0.16000   0.16000   0.16000   0.16000
     Eigenvalues ---    0.16000   0.16000   0.16000   0.16000   0.16000
     Eigenvalues ---    0.17175   0.17175   0.19795   0.19795   0.22425
     Eigenvalues ---    0.22426   0.24129   0.24129   0.25115   0.25115
     Eigenvalues ---    0.25271   0.25271   0.26608   0.26608   0.26820
     Eigenvalues ---    0.27774   0.27774   0.27825   0.27825   0.28398
     Eigenvalues ---    0.28398   0.28399   0.28399   0.34195   0.34195
     Eigenvalues ---    0.34196   0.34196   0.34448   0.34448   0.34465
     Eigenvalues ---    0.34465   0.34465   0.34465   0.34553   0.34553
     Eigenvalues ---    0.34553   0.34553   0.34686   0.34686   0.34687
     Eigenvalues ---    0.34687   0.34779   0.34779   0.34779   0.34779
     Eigenvalues ---    0.34826   0.34826   0.34827   0.34827   0.34865
     Eigenvalues ---    0.34865   0.34865   0.34865
 Linear search not attempted -- first point.
 Iteration  1 RMS(Cart)=  0.02294082 RMS(Int)=  0.00003320
 Iteration  2 RMS(Cart)=  0.00006076 RMS(Int)=  0.00000868
 Iteration  3 RMS(Cart)=  0.00000000 RMS(Int)=  0.00000868
 Variable       Old X    -DE/DX   Delta X   Delta X   Delta X     New X
                                 (Linear)    (Quad)   (Total)
    R1        2.95786  -0.00625   0.00000  -0.02424  -0.02423   2.93363
    R2        2.95791  -0.00624   0.00000  -0.02425  -0.02424   2.93366
    R3        3.02595  -0.00788   0.00000  -0.03406  -0.03402   2.99193
    R4        2.94793  -0.00844   0.00000  -0.03112  -0.03112   2.91681
    R5        2.94361  -0.00491   0.00000  -0.01745  -0.01747   2.92614
    R6        2.05956  -0.00003   0.00000  -0.00008  -0.00008   2.05949
    R7        2.06035   0.00021   0.00000   0.00060   0.00060   2.06095
    R8        2.90813  -0.00521   0.00000  -0.01699  -0.01701   2.89113
    R9        2.06553  -0.00050   0.00000  -0.00143  -0.00143   2.06410
   R10        2.06407  -0.00031   0.00000  -0.00088  -0.00088   2.06319
   R11        2.90809  -0.00520   0.00000  -0.01695  -0.01697   2.89112
   R12        2.94405  -0.00617   0.00000  -0.02293  -0.02292   2.92113
   R13        2.06580  -0.00044   0.00000  -0.00127  -0.00127   2.06453
   R14        2.94360  -0.00490   0.00000  -0.01745  -0.01747   2.92614
   R15        2.06407  -0.00031   0.00000  -0.00088  -0.00088   2.06319
   R16        2.06552  -0.00049   0.00000  -0.00142  -0.00142   2.06410
   R17        2.06034   0.00021   0.00000   0.00060   0.00060   2.06095
   R18        2.05959  -0.00003   0.00000  -0.00010  -0.00010   2.05949
   R19        2.91275  -0.00581   0.00000  -0.02025  -0.02025   2.89250
   R20        2.91276  -0.00581   0.00000  -0.02023  -0.02023   2.89253
   R21        2.05894   0.00017   0.00000   0.00047   0.00047   2.05941
   R22        2.06186  -0.00028   0.00000  -0.00079  -0.00079   2.06106
   R23        2.07002  -0.00061   0.00000  -0.00176  -0.00176   2.06827
   R24        2.06187  -0.00028   0.00000  -0.00080  -0.00080   2.06107
   R25        2.05894   0.00016   0.00000   0.00046   0.00046   2.05940
   R26        2.07001  -0.00060   0.00000  -0.00174  -0.00174   2.06826
   R27        2.95786  -0.00625   0.00000  -0.02424  -0.02423   2.93363
   R28        2.95791  -0.00625   0.00000  -0.02426  -0.02425   2.93366
   R29        3.02594  -0.00787   0.00000  -0.03403  -0.03399   2.99195
   R30        2.94361  -0.00491   0.00000  -0.01745  -0.01747   2.92614
   R31        2.05956  -0.00003   0.00000  -0.00007  -0.00007   2.05949
   R32        2.06035   0.00021   0.00000   0.00060   0.00060   2.06095
   R33        2.94360  -0.00490   0.00000  -0.01745  -0.01747   2.92613
   R34        2.06034   0.00021   0.00000   0.00060   0.00060   2.06095
   R35        2.05959  -0.00003   0.00000  -0.00009  -0.00009   2.05950
   R36        2.94404  -0.00617   0.00000  -0.02292  -0.02291   2.92113
   R37        2.91275  -0.00581   0.00000  -0.02024  -0.02024   2.89251
   R38        2.91276  -0.00581   0.00000  -0.02024  -0.02024   2.89253
   R39        2.90813  -0.00521   0.00000  -0.01698  -0.01700   2.89113
   R40        2.06553  -0.00050   0.00000  -0.00143  -0.00143   2.06410
   R41        2.06407  -0.00031   0.00000  -0.00088  -0.00088   2.06319
   R42        2.90809  -0.00520   0.00000  -0.01696  -0.01697   2.89112
   R43        2.06407  -0.00031   0.00000  -0.00088  -0.00088   2.06319
   R44        2.06552  -0.00049   0.00000  -0.00142  -0.00142   2.06410
   R45        2.06580  -0.00044   0.00000  -0.00127  -0.00127   2.06453
   R46        2.05894   0.00016   0.00000   0.00047   0.00047   2.05941
   R47        2.06186  -0.00028   0.00000  -0.00080  -0.00080   2.06106
   R48        2.07002  -0.00061   0.00000  -0.00176  -0.00176   2.06827
   R49        2.06187  -0.00028   0.00000  -0.00080  -0.00080   2.06107
   R50        2.05894   0.00016   0.00000   0.00046   0.00046   2.05940
   R51        2.07001  -0.00060   0.00000  -0.00174  -0.00174   2.06826
    A1        1.81718   0.00047   0.00000   0.00408   0.00408   1.82125
    A2        1.75479   0.00023   0.00000   0.00263   0.00263   1.75741
    A3        2.00298  -0.00027   0.00000  -0.00132  -0.00132   2.00166
    A4        1.75474   0.00024   0.00000   0.00273   0.00273   1.75747
    A5        2.00295  -0.00027   0.00000  -0.00125  -0.00126   2.00169
    A6        2.09010  -0.00023   0.00000  -0.00514  -0.00515   2.08495
    A7        1.83004  -0.00021   0.00000  -0.00260  -0.00259   1.82745
    A8        1.93330  -0.00013   0.00000  -0.00214  -0.00215   1.93116
    A9        1.95852  -0.00013   0.00000  -0.00235  -0.00235   1.95617
   A10        1.94591   0.00033   0.00000   0.00215   0.00215   1.94806
   A11        1.93662   0.00002   0.00000   0.00165   0.00163   1.93825
   A12        1.86136   0.00013   0.00000   0.00320   0.00319   1.86456
   A13        1.79506  -0.00021   0.00000  -0.00010  -0.00012   1.79494
   A14        1.96243   0.00018   0.00000   0.00015   0.00016   1.96258
   A15        1.94545  -0.00011   0.00000  -0.00115  -0.00115   1.94429
   A16        1.94786  -0.00002   0.00000  -0.00091  -0.00090   1.94696
   A17        1.94855  -0.00002   0.00000  -0.00166  -0.00165   1.94690
   A18        1.86635   0.00016   0.00000   0.00339   0.00339   1.86974
   A19        1.87466   0.00022   0.00000   0.00141   0.00141   1.87607
   A20        1.79894  -0.00039   0.00000  -0.00330  -0.00330   1.79564
   A21        1.98986   0.00005   0.00000   0.00185   0.00184   1.99170
   A22        1.79888  -0.00039   0.00000  -0.00323  -0.00324   1.79565
   A23        1.98985   0.00006   0.00000   0.00187   0.00186   1.99171
   A24        1.99169   0.00037   0.00000   0.00056   0.00057   1.99226
   A25        1.79502  -0.00021   0.00000  -0.00008  -0.00010   1.79493
   A26        1.94855  -0.00002   0.00000  -0.00166  -0.00166   1.94689
   A27        1.94789  -0.00002   0.00000  -0.00091  -0.00091   1.94699
   A28        1.94543  -0.00011   0.00000  -0.00114  -0.00114   1.94429
   A29        1.96244   0.00018   0.00000   0.00014   0.00015   1.96259
   A30        1.86637   0.00016   0.00000   0.00338   0.00337   1.86974
   A31        1.83007  -0.00021   0.00000  -0.00263  -0.00262   1.82745
   A32        1.95854  -0.00013   0.00000  -0.00234  -0.00234   1.95620
   A33        1.93325  -0.00013   0.00000  -0.00213  -0.00213   1.93112
   A34        1.93667   0.00002   0.00000   0.00163   0.00161   1.93829
   A35        1.94587   0.00033   0.00000   0.00217   0.00216   1.94803
   A36        1.86134   0.00013   0.00000   0.00321   0.00320   1.86454
   A37        1.63206   0.00067   0.00000   0.00314   0.00316   1.63523
   A38        2.03580  -0.00065   0.00000  -0.00618  -0.00618   2.02962
   A39        2.03574  -0.00065   0.00000  -0.00609  -0.00609   2.02965
   A40        1.94451  -0.00039   0.00000  -0.00072  -0.00073   1.94378
   A41        1.94448  -0.00039   0.00000  -0.00068  -0.00069   1.94379
   A42        1.86354   0.00121   0.00000   0.00946   0.00945   1.87300
   A43        1.98753  -0.00078   0.00000  -0.00520  -0.00521   1.98232
   A44        1.94400  -0.00030   0.00000  -0.00178  -0.00178   1.94222
[...]
     36  0.134934D+01  0.209011D+01  0.343788D+02  0.155843D+01  0.990855D-01
     37  0.209013D+01  0.134939D+01  0.343786D+02  0.280886D+01  0.421161D+00
     38 -0.176914D+01 -0.324878D+00  0.564049D+01  0.121427D+03  0.900906D+01
     39 -0.390228D+01 -0.670781D+00  0.218697D+00  0.119293D+03  0.388021D+01
     40 -0.670771D+00 -0.390238D+01  0.218794D+00  0.824360D+01 -0.238127D+00
     41 -0.324868D+00 -0.176898D+01  0.564068D+01  0.565576D+01  0.832789D-01
     42  0.618649D+01  0.618671D+01  0.973888D-01 -0.288312D+00 -0.623594D+00
     43  0.936315D-01 -0.232099D+00 -0.308842D+01  0.307220D+00 -0.176678D+00
     44 -0.206723D+00 -0.184348D+00 -0.357244D+01  0.588044D+00 -0.163681D+00
     45  0.160851D+00  0.996485D-01 -0.406058D+01 -0.148401D+00 -0.302908D+00
     46 -0.184330D+00 -0.206723D+00 -0.357251D+01  0.577354D+00 -0.197909D+00
     47 -0.232074D+00  0.936191D-01 -0.308843D+01 -0.355243D+00 -0.655036D-01
     48  0.996529D-01  0.160842D+00 -0.406046D+01 -0.236198D+00  0.647722D+00
               31            32            33            34            35 
     31  0.000000D+00
     32 -0.613862D+00  0.000000D+00
     33  0.327993D+01 -0.403106D+01  0.000000D+00
     34  0.448565D+00 -0.243528D+01 -0.126715D+02  0.000000D+00
     35  0.114312D+01  0.297898D+02  0.114332D+01  0.163164D+01  0.000000D+00
     36  0.400317D+00  0.280893D+01 -0.289748D+00  0.421161D+00 -0.882098D-01
     37 -0.289742D+00  0.155848D+01  0.400342D+00  0.990956D-01 -0.883907D-01
     38  0.313661D+01  0.565596D+01 -0.245214D+00  0.833052D-01 -0.302569D+01
     39  0.111491D+02  0.824342D+01 -0.598819D+00 -0.238126D+00 -0.303339D+01
     40 -0.598782D+00  0.119292D+03  0.111491D+02  0.388065D+01 -0.303352D+01
     41 -0.245212D+00  0.121428D+03  0.313624D+01  0.900903D+01 -0.302559D+01
     42 -0.469612D-01 -0.288371D+00 -0.468943D-01 -0.623578D+00  0.125319D+03
     43  0.360502D+00 -0.355237D+00 -0.172299D+00 -0.655224D-01  0.575355D+00
     44  0.153655D-01  0.577433D+00 -0.107504D+00 -0.197900D+00  0.724278D+01
     45 -0.792898D-01 -0.236197D+00 -0.176917D+00  0.647705D+00  0.315583D+01
     46 -0.107499D+00  0.588113D+00  0.153547D-01 -0.163677D+00  0.724261D+01
     47 -0.172298D+00  0.307249D+00  0.360491D+00 -0.176687D+00  0.575107D+00
     48 -0.176913D+00 -0.148319D+00 -0.792954D-01 -0.302899D+00  0.315603D+01
               36            37            38            39            40 
     36  0.000000D+00
     37  0.176787D+01  0.000000D+00
     38  0.239488D+00  0.359090D+00  0.000000D+00
     39  0.433376D+00 -0.353412D+00 -0.125483D+02  0.000000D+00
     40 -0.353405D+00  0.433389D+00  0.108044D+00  0.241818D+01  0.000000D+00
     41  0.359102D+00  0.239518D+00  0.348803D-01  0.107998D+00 -0.125482D+02
     42  0.125532D+01  0.125520D+01  0.512948D+00  0.435076D+01  0.435065D+01
     43  0.114694D+03  0.894076D+01  0.244411D-01  0.488688D+00 -0.176210D+00
     44  0.115242D+03  0.371645D+01 -0.296385D+00  0.315061D-01 -0.176742D+00
     45  0.112366D+03  0.116282D+01 -0.177925D+00  0.146544D+00 -0.700170D-01
     46  0.371685D+01  0.115242D+03  0.591941D+00 -0.176744D+00  0.315304D-01
     47  0.894051D+01  0.114695D+03 -0.186738D+00 -0.176214D+00  0.488738D+00
     48  0.116253D+01  0.112366D+03  0.502426D-01 -0.700321D-01  0.146583D+00
               41            42            43            44            45 
     41  0.000000D+00
     42  0.513005D+00  0.000000D+00
     43 -0.186735D+00 -0.197740D+00  0.000000D+00
     44  0.591968D+00 -0.511916D+00 -0.124112D+02  0.000000D+00
     45  0.502317D-01  0.719291D-01 -0.130427D+02 -0.135305D+02  0.000000D+00
     46 -0.296367D+00 -0.511945D+00  0.199067D+00  0.167969D+00 -0.286543D+00
     47  0.244723D-01 -0.197749D+00  0.366557D+01  0.198968D+00 -0.314519D+00
     48 -0.177934D+00  0.719015D-01 -0.314636D+00 -0.286576D+00  0.758381D-01
               46            47            48 
     46  0.000000D+00
     47 -0.124114D+02  0.000000D+00
     48 -0.135305D+02 -0.130424D+02  0.000000D+00
 End of Minotr F.D. properties file   721 does not exist.
 End of Minotr F.D. properties file   722 does not exist.
 End of Minotr F.D. properties file   788 does not exist.

 **********************************************************************

            Population analysis using the SCF density.

 **********************************************************************

 Orbital symmetries:
       Occupied  (A) (A) (A) (A) (A) (A) (A) (A) (A) (A) (A) (A)
                 (A) (A) (A) (A) (A) (A) (A) (A) (A) (A) (A) (A)
                 (A) (A) (A) (A) (A) (A) (A) (A) (A) (A) (A) (A)
                 (A) (A) (A) (A) (A) (A) (A) (A) (A) (A) (A) (A)
                 (A) (A) (A) (A) (A) (A) (A) (A) (A) (A) (A) (A)
                 (A) (A) (A) (A) (A) (A) (A) (A) (A)
       Virtual   (A) (A) (A) (A) (A) (A) (A) (A) (A) (A) (A) (A)
                 (A) (A) (A) (A) (A) (A) (A) (A) (A) (A) (A) (A)
                 (A) (A) (A) (A) (A) (A) (A) (A) (A) (A) (A) (A)
                 (A) (A) (A) (A) (A) (A) (A) (A) (A) (A) (A) (A)
                 (A) (A) (A) (A) (A) (A) (A) (A) (A) (A) (A) (A)
                 (A) (A) (A) (A) (A) (A) (A) (A) (A) (A) (A) (A)
                 (A) (A) (A) (A) (A) (A) (A) (A) (A) (A) (A) (A)
                 (A) (A) (A) (A) (A) (A) (A) (A) (A) (A) (A) (A)
                 (A) (A) (A) (A) (A) (A) (A) (A) (A) (A) (A) (A)
                 (A) (A) (A) (A) (A) (A) (A) (A) (A) (A) (A) (A)
                 (A) (A) (A) (A) (A) (A) (A) (A) (A) (A) (A) (A)
                 (A) (A) (A) (A) (A) (A) (A) (A) (A) (A) (A) (A)
                 (A) (A) (A) (A) (A) (A) (A) (A) (A) (A) (A) (A)
                 (A) (A) (A) (A) (A) (A) (A) (A) (A) (A) (A) (A)
                 (A) (A) (A) (A) (A) (A) (A) (A) (A) (A) (A) (A)
                 (A) (A) (A) (A) (A) (A) (A) (A) (A) (A) (A) (A)
                 (A) (A) (A) (A) (A) (A) (A) (A) (A) (A) (A) (A)
                 (A) (A) (A) (A) (A) (A) (A) (A) (A) (A) (A) (A)
                 (A) (A) (A) (A) (A) (A) (A) (A) (A) (A) (A) (A)
                 (A) (A) (A) (A) (A) (A) (A) (A) (A) (A) (A) (A)
                 (A) (A) (A) (A) (A) (A) (A) (A) (A) (A) (A) (A)
                 (A) (A) (A) (A) (A) (A) (A) (A) (A) (A) (A) (A)
                 (A) (A) (A) (A) (A) (A) (A) (A) (A) (A) (A) (A)
                 (A) (A) (A) (A) (A) (A) (A) (A) (A) (A) (A) (A)
                 (A) (A) (A) (A) (A) (A) (A) (A) (A) (A) (A) (A)
                 (A) (A) (A) (A) (A) (A) (A) (A) (A) (A) (A) (A)
                 (A) (A) (A) (A) (A) (A) (A) (A) (A) (A) (A) (A)
                 (A) (A) (A) (A) (A) (A) (A) (A) (A) (A) (A) (A)
                 (A) (A) (A) (A) (A) (A) (A) (A) (A) (A) (A) (A)
                 (A) (A) (A) (A) (A) (A) (A) (A) (A) (A) (A) (A)
                 (A) (A) (A) (A) (A) (A) (A) (A) (A) (A) (A) (A)
                 (A) (A) (A) (A) (A) (A) (A) (A) (A) (A) (A) (A)
                 (A) (A) (A) (A) (A) (A) (A) (A) (A) (A) (A) (A)
                 (A) (A) (A) (A) (A) (A) (A) (A) (A) (A) (A) (A)
                 (A) (A) (A) (A) (A) (A) (A) (A) (A) (A) (A) (A)
                 (A) (A) (A) (A) (A) (A) (A) (A) (A) (A) (A) (A)
                 (A) (A) (A)
 The electronic state is 1-A.
 Alpha  occ. eigenvalues --  -10.24063 -10.24041 -10.23907 -10.23906 -10.22359
 Alpha  occ. eigenvalues --  -10.22359 -10.21772 -10.21771 -10.21770 -10.21770
 Alpha  occ. eigenvalues --  -10.21750 -10.21749 -10.21747 -10.21747 -10.21213
 Alpha  occ. eigenvalues --  -10.21213 -10.21212 -10.21212  -0.91215  -0.89310
 Alpha  occ. eigenvalues --   -0.78762  -0.78031  -0.77090  -0.76805  -0.75768
 Alpha  occ. eigenvalues --   -0.71476  -0.69734  -0.69272  -0.66032  -0.64545
 Alpha  occ. eigenvalues --   -0.62629  -0.60532  -0.56159  -0.55657  -0.53638
 Alpha  occ. eigenvalues --   -0.51938  -0.51204  -0.49260  -0.48704  -0.47903
 Alpha  occ. eigenvalues --   -0.46489  -0.44367  -0.44133  -0.43262  -0.41420
 Alpha  occ. eigenvalues --   -0.41415  -0.40734  -0.40223  -0.39845  -0.39843
 Alpha  occ. eigenvalues --   -0.39349  -0.38205  -0.37904  -0.37251  -0.37180
 Alpha  occ. eigenvalues --   -0.35825  -0.34960  -0.33872  -0.33817  -0.33551
 Alpha  occ. eigenvalues --   -0.32632  -0.32358  -0.32316  -0.31875  -0.30934
 Alpha  occ. eigenvalues --   -0.30803  -0.30728  -0.28135  -0.27202
 Alpha virt. eigenvalues --    0.04043   0.05884   0.06015   0.06233   0.07533
 Alpha virt. eigenvalues --    0.08164   0.09454   0.09620   0.10077   0.10559
 Alpha virt. eigenvalues --    0.10708   0.11193   0.11747   0.12776   0.12796
 Alpha virt. eigenvalues --    0.14348   0.14384   0.14435   0.15082   0.15373
 Alpha virt. eigenvalues --    0.16008   0.16110   0.16739   0.17844   0.18047
 Alpha virt. eigenvalues --    0.18366   0.19094   0.19574   0.19976   0.20692
 Alpha virt. eigenvalues --    0.20970   0.21553   0.21983   0.22403   0.23072
 Alpha virt. eigenvalues --    0.23390   0.23810   0.24432   0.25232   0.25340
 Alpha virt. eigenvalues --    0.25982   0.26210   0.27303   0.27550   0.28080
 Alpha virt. eigenvalues --    0.28929   0.28957   0.29634   0.30535   0.31459
 Alpha virt. eigenvalues --    0.31955   0.32030   0.34035   0.35032   0.35523
 Alpha virt. eigenvalues --    0.35587   0.37893   0.38025   0.38359   0.39724
 Alpha virt. eigenvalues --    0.39735   0.41618   0.42761   0.43196   0.44174
 Alpha virt. eigenvalues --    0.44235   0.46277   0.48594   0.48940   0.49450
 Alpha virt. eigenvalues --    0.49666   0.49758   0.50276   0.51105   0.52346
 Alpha virt. eigenvalues --    0.52713   0.53081   0.53211   0.53704   0.54676
 Alpha virt. eigenvalues --    0.54935   0.56427   0.56981   0.57847   0.58086
 Alpha virt. eigenvalues --    0.58452   0.58706   0.59194   0.59582   0.59592
 Alpha virt. eigenvalues --    0.59634   0.60234   0.60526   0.61887   0.61946
 Alpha virt. eigenvalues --    0.62078   0.62184   0.62224   0.63260   0.63372
 Alpha virt. eigenvalues --    0.63904   0.63946   0.64073   0.65201   0.65336
 Alpha virt. eigenvalues --    0.66441   0.66455   0.66504   0.67051   0.67489
 Alpha virt. eigenvalues --    0.67896   0.67918   0.69683   0.69861   0.70095
 Alpha virt. eigenvalues --    0.71435   0.71441   0.72585   0.72656   0.74438
 Alpha virt. eigenvalues --    0.74580   0.75421   0.76102   0.77217   0.78685
 Alpha virt. eigenvalues --    0.80042   0.80566   0.82117   0.82167   0.83387
 Alpha virt. eigenvalues --    0.87010   0.87110   0.87197   0.87981   0.90388
 Alpha virt. eigenvalues --    0.91759   0.91773   0.96485   1.00522   1.01959
 Alpha virt. eigenvalues --    1.03419   1.04068   1.04903   1.09106   1.10175
 Alpha virt. eigenvalues --    1.10486   1.12210   1.12986   1.15977   1.16955
 Alpha virt. eigenvalues --    1.18763   1.19393   1.23211   1.24027   1.24175
 Alpha virt. eigenvalues --    1.24553   1.25322   1.25846   1.27874   1.28523
 Alpha virt. eigenvalues --    1.32290   1.32939   1.33224   1.35158   1.35268
 Alpha virt. eigenvalues --    1.36330   1.36645   1.37843   1.38155   1.41538
 Alpha virt. eigenvalues --    1.41700   1.44101   1.44575   1.45018   1.46498
 Alpha virt. eigenvalues --    1.47002   1.47818   1.48202   1.48438   1.48444
 Alpha virt. eigenvalues --    1.50160   1.51016   1.51127   1.51146   1.52220
 Alpha virt. eigenvalues --    1.52694   1.52824   1.54041   1.56423   1.56665
 Alpha virt. eigenvalues --    1.56695   1.56944   1.58198   1.58912   1.59067
 Alpha virt. eigenvalues --    1.60112   1.61476   1.62025   1.62250   1.62535
 Alpha virt. eigenvalues --    1.62701   1.62852   1.63438   1.65022   1.65799
 Alpha virt. eigenvalues --    1.65971   1.66152   1.67302   1.67364   1.67366
 Alpha virt. eigenvalues --    1.68679   1.69571   1.70259   1.71944   1.72007
 Alpha virt. eigenvalues --    1.72508   1.72539   1.73791   1.74122   1.75342
 Alpha virt. eigenvalues --    1.75681   1.75802   1.76009   1.76972   1.78473
 Alpha virt. eigenvalues --    1.78968   1.79094   1.80883   1.82193   1.82241
 Alpha virt. eigenvalues --    1.82458   1.82857   1.83386   1.84255   1.85989
 Alpha virt. eigenvalues --    1.86274   1.87483   1.87565   1.88053   1.88957
 Alpha virt. eigenvalues --    1.89300   1.90153   1.91113   1.91670   1.92279
 Alpha virt. eigenvalues --    1.92602   1.93513   1.95742   1.97029   1.97454
 Alpha virt. eigenvalues --    1.98081   1.98388   1.99336   2.00656   2.00793
 Alpha virt. eigenvalues --    2.01250   2.02912   2.03290   2.04054   2.06926
 Alpha virt. eigenvalues --    2.08507   2.08659   2.09696   2.10489   2.10503
 Alpha virt. eigenvalues --    2.15215   2.16080   2.16456   2.17816   2.18434
 Alpha virt. eigenvalues --    2.18760   2.19997   2.20255   2.20838   2.21154
 Alpha virt. eigenvalues --    2.23178   2.24451   2.24914   2.25865   2.28278
 Alpha virt. eigenvalues --    2.28492   2.29202   2.31672   2.32867   2.33411
 Alpha virt. eigenvalues --    2.33510   2.35878   2.36234   2.36878   2.37171
 Alpha virt. eigenvalues --    2.41157   2.41220   2.42864   2.43802   2.44368
 Alpha virt. eigenvalues --    2.44884   2.45018   2.45289   2.46077   2.47544
 Alpha virt. eigenvalues --    2.47700   2.49740   2.50051   2.50160   2.50542
 Alpha virt. eigenvalues --    2.50899   2.51915   2.52292   2.52868   2.55139
 Alpha virt. eigenvalues --    2.55965   2.56278   2.56471   2.57337   2.57758
 Alpha virt. eigenvalues --    2.59113   2.59840   2.60917   2.61419   2.62041
 Alpha virt. eigenvalues --    2.62980   2.63019   2.67195   2.67255   2.68332
 Alpha virt. eigenvalues --    2.69934   2.71247   2.72701   2.72823   2.73062
 Alpha virt. eigenvalues --    2.74372   2.75923   2.76336   2.77347   2.77500
 Alpha virt. eigenvalues --    2.78272   2.81119   2.82962   2.83463   2.84411
 Alpha virt. eigenvalues --    2.85187   2.85490   2.85706   2.88600   2.90051
 Alpha virt. eigenvalues --    2.91209   2.93207   2.95165   2.96304   2.98153
 Alpha virt. eigenvalues --    2.98474   2.98937   2.99236   3.01955   3.03588
 Alpha virt. eigenvalues --    3.04133   3.05667   3.06913   3.08121   3.09070
 Alpha virt. eigenvalues --    3.12591   3.14086   3.14349   3.16867   3.17484
 Alpha virt. eigenvalues --    3.19427   3.20252   3.22920   3.23347   3.26387
 Alpha virt. eigenvalues --    3.27810   3.29730   3.30735   3.33159   3.37447
 Alpha virt. eigenvalues --    3.38481   3.39647   3.40068   3.45159   3.49348
 Alpha virt. eigenvalues --    3.52250   3.65113   3.66854   3.67683   3.69575
 Alpha virt. eigenvalues --    3.71211   3.83949   3.84012   3.84063   3.85166
 Alpha virt. eigenvalues --    3.85572   3.85780   3.85962   3.87180   3.87580
 Alpha virt. eigenvalues --    3.88687   4.00579   4.00731   4.02566   4.03071
 Alpha virt. eigenvalues --    4.11388   4.12724   4.18111   4.18501   4.23106
 Alpha virt. eigenvalues --    4.23661   4.26211   4.29780   4.30983   4.31947
 Alpha virt. eigenvalues --    4.36482   4.36521   4.41079   4.41806   4.46699
 Alpha virt. eigenvalues --    4.48552   4.56698  23.87057  23.90777  23.92205
 Alpha virt. eigenvalues --   23.94164  23.95491  23.96613  23.98210  24.01417
 Alpha virt. eigenvalues --   24.02569  24.05110  24.06730  24.07531  24.07925
 Alpha virt. eigenvalues --   24.09023  24.11892  24.12908  24.16738  24.18452
          Condensed to atoms (all electrons):
 Mulliken charges:
               1
     1  C   -0.194383
     2  C   -0.184818
     3  C   -0.204257
     4  C   -0.132327
     5  C   -0.204262
     6  C   -0.184803
     7  C   -0.290838
     8  C   -0.243225
     9  C   -0.243222
    10  H    0.133462
    11  H    0.120373
    12  H    0.119402
    13  H    0.119401
    14  H    0.120375
    15  H    0.121586
    16  H    0.109814
    17  H    0.133870
    18  H    0.133870
    19  H    0.133464
    20  H    0.132367
    21  H    0.125083
    22  H    0.125083
    23  H    0.132368
    24  H    0.121585
    25  C   -0.194266
    26  C   -0.184838
    27  C   -0.184852
    28  C   -0.290803
    29  C   -0.204243
    30  H    0.133865
    31  H    0.133467
    32  C   -0.204237
    33  H    0.133469
    34  H    0.133864
    35  C   -0.132368
    36  C   -0.243233
    37  C   -0.243241
    38  H    0.125081
    39  H    0.132363
    40  H    0.132363
    41  H    0.125080
    42  H    0.109818
    43  H    0.120371
    44  H    0.119414
    45  H    0.121586
    46  H    0.119414
    47  H    0.120373
    48  H    0.121587
 Sum of Mulliken charges =   0.00000
 Mulliken charges with hydrogens summed into heavy atoms:
               1
     1  C   -0.194383
     2  C    0.082516
     3  C    0.053193
     4  C   -0.022513
     5  C    0.053188
     6  C    0.082529
     7  C   -0.290838
     8  C    0.118135
     9  C    0.118140
    25  C   -0.194266
    26  C    0.082494
    27  C    0.082482
    28  C   -0.290803
    29  C    0.053201
    32  C    0.053207
    35  C   -0.022550
    36  C    0.118138
    37  C    0.118133
 Electronic spatial extent (au):  <R**2>=           4002.2338
 Charge=              0.0000 electrons
 Dipole moment (field-independent basis, Debye):
    X=             -0.0001    Y=              0.0000    Z=              0.0000  Tot=              0.0001
 1\1\GINC-NODE46-002\SP\RmPW1PW91\6-311G(d,p)\C18H30\CD14937\08-Apr-201
 7\0\\#T nmr=(giao,spinspin) mpw1pw91/6-311g(d,p) geom=check maxdisk=50
 GB\\HC064 NMR BAPOCM10 20\\0,1\C,0,2.984576235,2.9431506041,2.70943383
 05\C,0,2.3318072598,2.1905210198,3.9026215049\C,0,2.2880323111,0.70739
 54263,3.4590848122\C,0,2.8828044326,0.7567394652,2.049955636\C,0,1.851
 4417185,1.4272887069,1.1397430807\C,0,1.8980336153,2.9057072699,1.5984
 485738\C,0,3.9864505401,1.834680378,2.1767823257\C,0,5.0893584258,1.38
 93712347,3.1421238097\C,0,4.6532049511,2.1085305871,0.8251013498\H,0,2
 .137103996,3.5672658866,0.764992869\H,0,4.7544171334,1.2897214843,4.17
 40947685\H,0,5.9298366694,2.0843029122,3.1346287826\H,0,5.5153639079,2
 .7677328286,0.9324485604\H,0,3.9857005005,2.5573881255,0.0902252492\H,
 0,5.0206421023,1.1670609965,0.4046324459\H,0,3.2416588238,-0.207949642
 2,1.6829792521\H,0,0.9353852211,3.233760038,1.9899746011\H,0,1.3330882
 387,2.5780980073,4.1024900298\H,0,2.9015168294,2.3069600403,4.82530098
 21\H,0,2.1204168903,1.3269618384,0.0862353991\H,0,0.8604457817,0.98332
 88237,1.2590999868\H,0,1.2735344923,0.3021986362,3.4536493628\H,0,2.88
 0225122,0.0740470579,4.1227630733\H,0,5.4765254354,0.4155423815,2.8260
 091912\C,0,3.5169788658,4.3572716223,3.048158079\C,0,4.1698265607,5.10
 97379656,1.8549153388\C,0,4.6036917189,4.3944518728,4.1589795049\C,0,2
 .5154043453,5.4659988246,3.5809601873\C,0,4.2139785898,6.592854148,2.2
 984374361\H,0,5.1684376128,4.7219108422,1.6549606587\H,0,3.6000118833,
 4.9934204902,0.9322863988\C,0,4.6506873557,5.872846198,4.617708002\H,0
 ,4.3645787944,3.7329348866,4.9924559903\H,0,5.5662062828,4.0661548767,
 3.7673086972\C,0,3.6193637194,6.5436482881,3.7076390803\C,0,1.41248693
 21,5.9117342856,2.6158225258\C,0,1.848776329,5.1924105056,4.9327576707
 \H,0,5.228567997,6.9978230249,2.3037539036\H,0,3.621852151,7.226333004
 4,1.6348247468\H,0,4.3818733307,5.9732171962,5.6712524736\H,0,5.641771
 1213,6.3165768544,4.498228478\H,0,3.2608135313,7.5084312481,4.07466571
 42\H,0,1.7472254106,6.0111059496,1.5837602536\H,0,0.5716533297,5.21724
 39008,2.6236056076\H,0,1.0258904832,6.8857954795,2.9319208468\H,0,0.98
 6269532,4.5336453721,4.8255561978\H,0,2.5162013844,4.7432036022,5.6674
 917494\H,0,1.4818821051,6.1340454547,5.3533309813\\Version=ES64L-G09Re
 vD.01\State=1-A\HF=-703.999941\RMSD=8.848e-09\Dipole=-0.0000101,-0.000
 0196,-0.0000058\Quadrupole=0.2494325,-0.1934835,-0.055949,-0.1829043,-
 0.1183759,-0.0015033\PG=C01 [X(C18H30)]\\@


 TRUTH, IN SCIENCE, CAN BE DEFINED AS THE WORKING HYPOTHESIS 
 BEST FITTED TO OPEN THE WAY TO THE NEXT BETTER ONE.

                              -- KONRAD LORENZ
 Job cpu time:       0 days 21 hours  0 minutes 22.0 seconds.
 File lengths (MBytes):  RWF=   2987 Int=      0 D2E=      0 Chk=     19 Scr=      1
 Normal termination of Gaussian 09 at Sat Apr  8 08:49:12 2017.
